
units           real
boundary p p p
atom_style      full

neighbor 1.9 bin
neigh_modify every 1 delay 1 check yes

read_data IC_N200_Rg_175A.data extra/special/per/atom 10
  orthogonal box = (-250 -250 -250) to (250 250 250)
  2 by 2 by 2 MPI processor grid
  reading atoms ...
  5000 atoms
  scanning bonds ...
  11 = max bonds/atom
  scanning angles ...
  1 = max angles/atom
  reading bonds ...
  4800 bonds
  reading angles ...
  4600 angles
  2 = max # of 1-2 neighbors
  2 = max # of 1-3 neighbors
  4 = max # of 1-4 neighbors
  16 = max # of special neighbors
  special bonds CPU = 0.0343277 secs
  read_data CPU = 0.0968647 secs

angle_style  cosine
angle_coeff   *  2  # K (energy unit)

bond_style      harmonic
# bond-type, K (energy/distance^2), R0 (distance)
bond_coeff   1   3   10
bond_coeff   2   3   10
bond_coeff   3   1.8   11.22

pair_style lj/cut 25
# atom-typ1, atom-typ2, energy-well, sigma (bead-diameter), cut-off (distance)
pair_coeff  * * 0.3 10 25

special_bonds lj  1 1 1 angle no
  2 = max # of 1-2 neighbors
  2 = max # of 1-3 neighbors
  4 = max # of 1-4 neighbors
  16 = max # of special neighbors
  special bonds CPU = 0.000290125 secs

minimize 1.0e-4 1.0e-6 20000 20000 # force_tol, energy_tol, maxiter, maxeval
WARNING: Using 'neigh_modify every 1 delay 0 check yes' setting during minimization (../min.cpp:168)
Neighbor list info ...
  update every 1 steps, delay 0 steps, check yes
  max neighbors/atom: 2000, page size: 100000
  master list distance cutoff = 26.9
  ghost atom cutoff = 26.9
  binsize = 13.45, bins = 38 38 38
  1 neighbor lists, perpetual/occasional/extra = 1 0 0
  (1) pair lj/cut, perpetual
      attributes: half, newton on
      pair build: half/bin/newton
      stencil: half/bin/3d/newton
      bin: standard
Per MPI rank memory allocation (min/avg/max) = 9.435 | 9.491 | 9.812 Mbytes
Step Temp E_pair E_mol TotEng Press 
       0            0     23223661       360000     23583661    51500.021 
    2716            0   -3008.2836    1917.3655   -1090.9181  -0.21495914 
Loop time of 0.8157 on 8 procs for 2716 steps with 5000 atoms

99.6% CPU use with 8 MPI tasks x no OpenMP threads

Minimization stats:
  Stopping criterion = energy tolerance
  Energy initial, next-to-last, final = 
         23583660.6342     -1090.81202443     -1090.91805571
  Force two-norm initial, final = 234700 1.18135
  Force max component initial, final = 11733 0.255402
  Final line search alpha, max atom move = 0.247917 0.0633185
  Iterations, force evaluations = 2716 3368

MPI task timing breakdown:
Section |  min time  |  avg time  |  max time  |%varavg| %total
---------------------------------------------------------------
Pair    | 0.20535    | 0.27784    | 0.39824    |  10.4 | 34.06
Bond    | 0.0667     | 0.078295   | 0.096331   |   3.1 |  9.60
Neigh   | 0.093962   | 0.095182   | 0.09671    |   0.3 | 11.67
Comm    | 0.12324    | 0.24656    | 0.32133    |  11.8 | 30.23
Output  | 0          | 0          | 0          |   0.0 |  0.00
Modify  | 0          | 0          | 0          |   0.0 |  0.00
Other   |            | 0.1178     |            |       | 14.44

Nlocal:    625 ave 773 max 535 min
Histogram: 2 0 1 2 1 1 0 0 0 1
Nghost:    362.75 ave 447 max 318 min
Histogram: 3 2 0 0 0 0 1 1 0 1
Neighs:    5198.25 ave 7858 max 3700 min
Histogram: 1 2 1 2 0 1 0 0 0 1

Total # of neighbors = 41586
Ave neighs/atom = 8.3172
Ave special neighs/atom = 5.52
Neighbor list builds = 201
Dangerous builds = 0

# further equilibriate the system before bond formation takes place
fix fxlan all langevin $T $T 500 ${seed}
fix fxlan all langevin 310 $T 500 ${seed}
fix fxlan all langevin 310 310 500 ${seed}
fix fxlan all langevin 310 310 500 135417
fix fxnve all nve
timestep 1
run 10000
Per MPI rank memory allocation (min/avg/max) = 8.318 | 8.368 | 8.687 Mbytes
Step Temp E_pair E_mol TotEng Press 
    2716            0   -3008.2836    1917.3655   -1090.9181  -0.21495914 
   12716    306.88899   -2350.0493     3856.908     6079.833   -2.2404237 
Loop time of 1.7664 on 8 procs for 10000 steps with 5000 atoms

Performance: 489.132 ns/day, 0.049 hours/ns, 5661.246 timesteps/s
99.7% CPU use with 8 MPI tasks x no OpenMP threads

MPI task timing breakdown:
Section |  min time  |  avg time  |  max time  |%varavg| %total
---------------------------------------------------------------
Pair    | 0.37636    | 0.52758    | 0.80511    |  17.4 | 29.87
Bond    | 0.16241    | 0.18916    | 0.2339     |   4.8 | 10.71
Neigh   | 0.010032   | 0.010229   | 0.010431   |   0.1 |  0.58
Comm    | 0.32614    | 0.59972    | 0.74683    |  16.9 | 33.95
Output  | 3.4572e-05 | 4.5324e-05 | 5.0731e-05 |   0.0 |  0.00
Modify  | 0.24712    | 0.28868    | 0.3589     |   6.1 | 16.34
Other   |            | 0.151      |            |       |  8.55

Nlocal:    625 ave 772 max 535 min
Histogram: 2 0 1 1 2 1 0 0 0 1
Nghost:    362.875 ave 445 max 319 min
Histogram: 4 0 1 0 0 0 1 1 0 1
Neighs:    5156.12 ave 7871 max 3707 min
Histogram: 1 2 1 2 0 1 0 0 0 1

Total # of neighbors = 41249
Ave neighs/atom = 8.2498
Ave special neighs/atom = 5.52
Neighbor list builds = 20
Dangerous builds = 0

unfix fxlan
unfix fxnve
reset_timestep 0

variable t equal step
variable steps equal 200000000
variable dt_thermo equal 1000000
variable dt_movie equal 1000000

group rxnSites type 1 3
1000 atoms in group rxnSites

fix Colvars all colvars N200_Rg_IC_175A.colvars output ${fName}
fix Colvars all colvars N200_Rg_IC_175A.colvars output Run2_IC_Rg_175A_Es_3kT_Ens05kT

# fix ID group-ID(atom-types) bond/create Nevery itype jtype Rmin bondtype (prob values = fraction seed) (iparam maxbond newType)
fix bondc rxnSites bond/create/random 20 1 3 12.72 3 prob 1 ${seed} iparam 1 1 jparam 1 3
fix bondc rxnSites bond/create/random 20 1 3 12.72 3 prob 1 135417 iparam 1 1 jparam 1 3

# fix ID group-ID bond/break Nevery bondtype Rmax keyword values ...
fix bondbr rxnSites bond/break 20 3 12.72 prob 1 ${seed}
fix bondbr rxnSites bond/break 20 3 12.72 prob 1 135417

variable frmbnd equal f_bondc[2]
variable brkbnd equal f_bondbr[2]
fix saveBond all print ${dt_thermo} "$t ${frmbnd} ${brkbnd}" file BondData_${fName}.dat screen no
fix saveBond all print 1000000 "$t ${frmbnd} ${brkbnd}" file BondData_${fName}.dat screen no
fix saveBond all print 1000000 "$t ${frmbnd} ${brkbnd}" file BondData_Run2_IC_Rg_175A_Es_3kT_Ens05kT.dat screen no

thermo_style    custom step epair pe ke ebond eangle temp bonds
thermo          ${dt_thermo}
thermo          1000000
fix saveThermo all print ${dt_thermo} "$t $(temp) $(ke) $(pe) $(epair) $(ebond) $(eangle) $(bonds)" file Thermo_${fName}.dat title "# Steps Temp KinEng PotEng Epair Ebond Eangle Bonds" screen no
fix saveThermo all print 1000000 "$t $(temp) $(ke) $(pe) $(epair) $(ebond) $(eangle) $(bonds)" file Thermo_${fName}.dat title "# Steps Temp KinEng PotEng Epair Ebond Eangle Bonds" screen no
fix saveThermo all print 1000000 "$t $(temp) $(ke) $(pe) $(epair) $(ebond) $(eangle) $(bonds)" file Thermo_Run2_IC_Rg_175A_Es_3kT_Ens05kT.dat title "# Steps Temp KinEng PotEng Epair Ebond Eangle Bonds" screen no

############################ Langevin Dynamics ###############################
fix fxlan all langevin $T $T 500 ${seed}
fix fxlan all langevin 310 $T 500 ${seed}
fix fxlan all langevin 310 310 500 ${seed}
fix fxlan all langevin 310 310 500 135417
fix fxnve all nve

comm_style tiled
fix fxbal all balance 1000 1.05 rcb # load balance for spatially heterogeneous system

timestep 25

dump coor all custom ${dt_movie} traj_${fName}.dump id type mol mass x y z xu yu zu
dump coor all custom 1000000 traj_${fName}.dump id type mol mass x y z xu yu zu
dump coor all custom 1000000 traj_Run2_IC_Rg_175A_Es_3kT_Ens05kT.dump id type mol mass x y z xu yu zu

run ${steps}
run 200000000
Neighbor list info ...
  update every 1 steps, delay 1 steps, check yes
  max neighbors/atom: 2000, page size: 100000
  master list distance cutoff = 26.9
  ghost atom cutoff = 26.9
  binsize = 13.45, bins = 38 38 38
  2 neighbor lists, perpetual/occasional/extra = 1 1 0
  (1) pair lj/cut, perpetual
      attributes: half, newton on
      pair build: half/bin/newton
      stencil: half/bin/3d/newton
      bin: standard
  (2) fix bond/create/random, occasional, copy from (1)
      attributes: half, newton on
      pair build: copy
      stencil: none
      bin: none
colvars: Creating proxy instance
colvars: ----------------------------------------------------------------------
colvars: Initializing the collective variables module, version "2019-04-26".
colvars: Please cite Fiorin et al, Mol Phys 2013:
colvars:  http://dx.doi.org/10.1080/00268976.2013.813594
colvars: in any publication based on this calculation.
colvars: Using LAMMPS interface, version "2019-04-09".
colvars: ----------------------------------------------------------------------
colvars: Reading new configuration from file "N200_Rg_IC_175A.colvars":
colvars: # smp = on [default]
colvars: # colvarsTrajFrequency = 50000
colvars: # colvarsRestartFrequency = 50000
colvars: # scriptedColvarForces = off [default]
colvars: # scriptingAfterBiases = off [default]
colvars: ----------------------------------------------------------------------
colvars:   Initializing a new collective variable.
colvars:   # name = "Rg1"
colvars:   Initializing a new "gyration" component.
colvars:     # name = "" [default]
colvars:     # componentCoeff = 1 [default]
colvars:     # componentExp = 1 [default]
colvars:     # period = 0 [default]
colvars:     # wrapAround = 0 [default]
colvars:     # forceNoPBC = off [default]
colvars:     # scalable = on [default]
colvars:       Initializing atom group "atoms".
colvars:       # name = "" [default]
colvars:       # centerReference = off [default]
colvars:       # rotateReference = off [default]
colvars:       # atomsOfGroup = "" [default]
colvars:       # indexGroup = "" [default]
colvars:       # psfSegID =  [default]
colvars:       # atomsFile = "" [default]
colvars:       # dummyAtom = ( 0 , 0 , 0 ) [default]
colvars:       # enableForces = on [default]
colvars:       # enableFitGradients = on [default]
colvars:       # printAtomIDs = off [default]
colvars:       Atom group "atoms" defined with 200 atoms requested.
colvars:   All components initialized.
colvars:   # timeStepFactor = 1 [default]
colvars:   # width = 1 [default]
colvars:   # lowerBoundary = 0
colvars:   # upperBoundary = 200
colvars:   # hardLowerBoundary = off [default]
colvars:   # hardUpperBoundary = on
colvars:   # expandBoundaries = off [default]
colvars:   # extendedLagrangian = off [default]
colvars:   # outputValue = on [default]
colvars:   # outputVelocity = off [default]
colvars:   # outputTotalForce = off [default]
colvars:   # outputAppliedForce = off [default]
colvars:   # subtractAppliedForce = off [default]
colvars:   # runAve = off [default]
colvars:   # corrFunc = off [default]
colvars: ----------------------------------------------------------------------
colvars: Collective variables initialized, 1 in total.
colvars: ----------------------------------------------------------------------
colvars:   Initializing a new "metadynamics" instance.
colvars:   # name = "meta-radgy"
colvars:   # colvars = { Rg1 }
colvars:   # outputEnergy = off [default]
colvars:   # timeStepFactor = 1 [default]
colvars:   # writeTISamples = off [default]
colvars:   # writeTIPMF = off [default]
colvars:   # hillWeight = 0.2
colvars:   # newHillFrequency = 500
colvars:   # hillWidth = 1
colvars:   Half-widths of the Gaussian hills (sigma's):
colvars:   Rg1: 0.5
colvars:   # multipleReplicas = off [default]
colvars:   # useGrids = on [default]
colvars:   # gridsUpdateFrequency = 500 [default]
colvars:   # rebinGrids = off [default]
colvars:   # keepHills = off [default]
colvars:   # writeFreeEnergyFile = on [default]
colvars:   # keepFreeEnergyFiles = off [default]
colvars:   # writeHillsTrajectory = on
colvars:   # wellTempered = on
colvars:   # biasTemperature = 310
colvars:   Well-tempered metadynamics is used.
colvars:   The bias temperature is 310.
colvars:   # ebMeta = off [default]
colvars: ----------------------------------------------------------------------
colvars: Collective variables biases initialized, 1 in total.
colvars: ----------------------------------------------------------------------
colvars: Collective variables module (re)initialized.
colvars: ----------------------------------------------------------------------
colvars: The restart output state file will be "rest.colvars.state".
colvars: The final output state file will be "Run2_IC_Rg_175A_Es_3kT_Ens05kT.colvars.state".
colvars: Writing to colvar trajectory file "Run2_IC_Rg_175A_Es_3kT_Ens05kT.colvars.traj".
colvars: Re-initialized atom group for variable "Rg1":0/0. 200 atoms: total mass = 200000, total charge = 0.
Per MPI rank memory allocation (min/avg/max) = 10.35 | 10.51 | 11.05 Mbytes
Step E_pair PotEng KinEng E_bond E_angle Temp Bonds 
       0   -2350.0493    1506.8587    4572.9742     1655.268      2201.64    306.88899     4800 
colvars: Synchronizing (emptying the buffer of) trajectory file "Run2_IC_Rg_175A_Es_3kT_Ens05kT.colvars.traj".
colvars: Saving collective variables state to "rest.colvars.state".
colvars: Synchronizing (emptying the buffer of) trajectory file "Run2_IC_Rg_175A_Es_3kT_Ens05kT.colvars.traj".
colvars: Saving collective variables state to "rest.colvars.state".
colvars: Synchronizing (emptying the buffer of) trajectory file "Run2_IC_Rg_175A_Es_3kT_Ens05kT.colvars.traj".
colvars: Saving collective variables state to "rest.colvars.state".
colvars: Synchronizing (emptying the buffer of) trajectory file "Run2_IC_Rg_175A_Es_3kT_Ens05kT.colvars.traj".
colvars: Saving collective variables state to "rest.colvars.state".
colvars: Synchronizing (emptying the buffer of) trajectory file "Run2_IC_Rg_175A_Es_3kT_Ens05kT.colvars.traj".
colvars: Saving collective variables state to "rest.colvars.state".
colvars: Synchronizing (emptying the buffer of) trajectory file "Run2_IC_Rg_175A_Es_3kT_Ens05kT.colvars.traj".
colvars: Saving collective variables state to "rest.colvars.state".
colvars: Synchronizing (emptying the buffer of) trajectory file "Run2_IC_Rg_175A_Es_3kT_Ens05kT.colvars.traj".
colvars: Saving collective variables state to "rest.colvars.state".
colvars: Synchronizing (emptying the buffer of) trajectory file "Run2_IC_Rg_175A_Es_3kT_Ens05kT.colvars.traj".
colvars: Saving collective variables state to "rest.colvars.state".
colvars: Synchronizing (emptying the buffer of) trajectory file "Run2_IC_Rg_175A_Es_3kT_Ens05kT.colvars.traj".
colvars: Saving collective variables state to "rest.colvars.state".
colvars: Synchronizing (emptying the buffer of) trajectory file "Run2_IC_Rg_175A_Es_3kT_Ens05kT.colvars.traj".
colvars: Saving collective variables state to "rest.colvars.state".
colvars: Synchronizing (emptying the buffer of) trajectory file "Run2_IC_Rg_175A_Es_3kT_Ens05kT.colvars.traj".
colvars: Saving collective variables state to "rest.colvars.state".
colvars: Synchronizing (emptying the buffer of) trajectory file "Run2_IC_Rg_175A_Es_3kT_Ens05kT.colvars.traj".
colvars: Saving collective variables state to "rest.colvars.state".
colvars: Synchronizing (emptying the buffer of) trajectory file "Run2_IC_Rg_175A_Es_3kT_Ens05kT.colvars.traj".
colvars: Saving collective variables state to "rest.colvars.state".
colvars: Synchronizing (emptying the buffer of) trajectory file "Run2_IC_Rg_175A_Es_3kT_Ens05kT.colvars.traj".
colvars: Saving collective variables state to "rest.colvars.state".
colvars: Synchronizing (emptying the buffer of) trajectory file "Run2_IC_Rg_175A_Es_3kT_Ens05kT.colvars.traj".
colvars: Saving collective variables state to "rest.colvars.state".
colvars: Synchronizing (emptying the buffer of) trajectory file "Run2_IC_Rg_175A_Es_3kT_Ens05kT.colvars.traj".
colvars: Saving collective variables state to "rest.colvars.state".
colvars: Synchronizing (emptying the buffer of) trajectory file "Run2_IC_Rg_175A_Es_3kT_Ens05kT.colvars.traj".
colvars: Saving collective variables state to "rest.colvars.state".
colvars: Synchronizing (emptying the buffer of) trajectory file "Run2_IC_Rg_175A_Es_3kT_Ens05kT.colvars.traj".
colvars: Saving collective variables state to "rest.colvars.state".
colvars: Synchronizing (emptying the buffer of) trajectory file "Run2_IC_Rg_175A_Es_3kT_Ens05kT.colvars.traj".
colvars: Saving collective variables state to "rest.colvars.state".
colvars: Synchronizing (emptying the buffer of) trajectory file "Run2_IC_Rg_175A_Es_3kT_Ens05kT.colvars.traj".
colvars: Saving collective variables state to "rest.colvars.state".
 1000000   -1637.2003    2710.7827    4637.8358    1542.7938    2805.1892    311.24181     5111 
colvars: Synchronizing (emptying the buffer of) trajectory file "Run2_IC_Rg_175A_Es_3kT_Ens05kT.colvars.traj".
colvars: Saving collective variables state to "rest.colvars.state".
colvars: Synchronizing (emptying the buffer of) trajectory file "Run2_IC_Rg_175A_Es_3kT_Ens05kT.colvars.traj".
colvars: Saving collective variables state to "rest.colvars.state".
colvars: Synchronizing (emptying the buffer of) trajectory file "Run2_IC_Rg_175A_Es_3kT_Ens05kT.colvars.traj".
colvars: Saving collective variables state to "rest.colvars.state".
colvars: Synchronizing (emptying the buffer of) trajectory file "Run2_IC_Rg_175A_Es_3kT_Ens05kT.colvars.traj".
colvars: Saving collective variables state to "rest.colvars.state".
colvars: Synchronizing (emptying the buffer of) trajectory file "Run2_IC_Rg_175A_Es_3kT_Ens05kT.colvars.traj".
colvars: Saving collective variables state to "rest.colvars.state".
colvars: Synchronizing (emptying the buffer of) trajectory file "Run2_IC_Rg_175A_Es_3kT_Ens05kT.colvars.traj".
colvars: Saving collective variables state to "rest.colvars.state".
colvars: Synchronizing (emptying the buffer of) trajectory file "Run2_IC_Rg_175A_Es_3kT_Ens05kT.colvars.traj".
colvars: Saving collective variables state to "rest.colvars.state".
colvars: Synchronizing (emptying the buffer of) trajectory file "Run2_IC_Rg_175A_Es_3kT_Ens05kT.colvars.traj".
colvars: Saving collective variables state to "rest.colvars.state".
colvars: Synchronizing (emptying the buffer of) trajectory file "Run2_IC_Rg_175A_Es_3kT_Ens05kT.colvars.traj".
colvars: Saving collective variables state to "rest.colvars.state".
colvars: Synchronizing (emptying the buffer of) trajectory file "Run2_IC_Rg_175A_Es_3kT_Ens05kT.colvars.traj".
colvars: Saving collective variables state to "rest.colvars.state".
colvars: Synchronizing (emptying the buffer of) trajectory file "Run2_IC_Rg_175A_Es_3kT_Ens05kT.colvars.traj".
colvars: Saving collective variables state to "rest.colvars.state".
colvars: Synchronizing (emptying the buffer of) trajectory file "Run2_IC_Rg_175A_Es_3kT_Ens05kT.colvars.traj".
colvars: Saving collective variables state to "rest.colvars.state".
colvars: Synchronizing (emptying the buffer of) trajectory file "Run2_IC_Rg_175A_Es_3kT_Ens05kT.colvars.traj".
colvars: Saving collective variables state to "rest.colvars.state".
colvars: Synchronizing (emptying the buffer of) trajectory file "Run2_IC_Rg_175A_Es_3kT_Ens05kT.colvars.traj".
colvars: Saving collective variables state to "rest.colvars.state".
colvars: Synchronizing (emptying the buffer of) trajectory file "Run2_IC_Rg_175A_Es_3kT_Ens05kT.colvars.traj".
colvars: Saving collective variables state to "rest.colvars.state".
colvars: Synchronizing (emptying the buffer of) trajectory file "Run2_IC_Rg_175A_Es_3kT_Ens05kT.colvars.traj".
colvars: Saving collective variables state to "rest.colvars.state".
colvars: Synchronizing (emptying the buffer of) trajectory file "Run2_IC_Rg_175A_Es_3kT_Ens05kT.colvars.traj".
colvars: Saving collective variables state to "rest.colvars.state".
colvars: Synchronizing (emptying the buffer of) trajectory file "Run2_IC_Rg_175A_Es_3kT_Ens05kT.colvars.traj".
colvars: Saving collective variables state to "rest.colvars.state".
colvars: Synchronizing (emptying the buffer of) trajectory file "Run2_IC_Rg_175A_Es_3kT_Ens05kT.colvars.traj".
colvars: Saving collective variables state to "rest.colvars.state".
colvars: Synchronizing (emptying the buffer of) trajectory file "Run2_IC_Rg_175A_Es_3kT_Ens05kT.colvars.traj".
colvars: Saving collective variables state to "rest.colvars.state".
 2000000   -1907.7269    2497.4622    4640.4069    1489.1246    2916.0645    311.41436     5164 
colvars: Synchronizing (emptying the buffer of) trajectory file "Run2_IC_Rg_175A_Es_3kT_Ens05kT.colvars.traj".
colvars: Saving collective variables state to "rest.colvars.state".
colvars: Synchronizing (emptying the buffer of) trajectory file "Run2_IC_Rg_175A_Es_3kT_Ens05kT.colvars.traj".
colvars: Saving collective variables state to "rest.colvars.state".
colvars: Synchronizing (emptying the buffer of) trajectory file "Run2_IC_Rg_175A_Es_3kT_Ens05kT.colvars.traj".
colvars: Saving collective variables state to "rest.colvars.state".
colvars: Synchronizing (emptying the buffer of) trajectory file "Run2_IC_Rg_175A_Es_3kT_Ens05kT.colvars.traj".
colvars: Saving collective variables state to "rest.colvars.state".
colvars: Synchronizing (emptying the buffer of) trajectory file "Run2_IC_Rg_175A_Es_3kT_Ens05kT.colvars.traj".
colvars: Saving collective variables state to "rest.colvars.state".
colvars: Synchronizing (emptying the buffer of) trajectory file "Run2_IC_Rg_175A_Es_3kT_Ens05kT.colvars.traj".
colvars: Saving collective variables state to "rest.colvars.state".
colvars: Synchronizing (emptying the buffer of) trajectory file "Run2_IC_Rg_175A_Es_3kT_Ens05kT.colvars.traj".
colvars: Saving collective variables state to "rest.colvars.state".
colvars: Synchronizing (emptying the buffer of) trajectory file "Run2_IC_Rg_175A_Es_3kT_Ens05kT.colvars.traj".
colvars: Saving collective variables state to "rest.colvars.state".
colvars: Synchronizing (emptying the buffer of) trajectory file "Run2_IC_Rg_175A_Es_3kT_Ens05kT.colvars.traj".
colvars: Saving collective variables state to "rest.colvars.state".
colvars: Synchronizing (emptying the buffer of) trajectory file "Run2_IC_Rg_175A_Es_3kT_Ens05kT.colvars.traj".
colvars: Saving collective variables state to "rest.colvars.state".
colvars: Synchronizing (emptying the buffer of) trajectory file "Run2_IC_Rg_175A_Es_3kT_Ens05kT.colvars.traj".
colvars: Saving collective variables state to "rest.colvars.state".
colvars: Synchronizing (emptying the buffer of) trajectory file "Run2_IC_Rg_175A_Es_3kT_Ens05kT.colvars.traj".
colvars: Saving collective variables state to "rest.colvars.state".
colvars: Synchronizing (emptying the buffer of) trajectory file "Run2_IC_Rg_175A_Es_3kT_Ens05kT.colvars.traj".
colvars: Saving collective variables state to "rest.colvars.state".
colvars: Synchronizing (emptying the buffer of) trajectory file "Run2_IC_Rg_175A_Es_3kT_Ens05kT.colvars.traj".
colvars: Saving collective variables state to "rest.colvars.state".
colvars: Synchronizing (emptying the buffer of) trajectory file "Run2_IC_Rg_175A_Es_3kT_Ens05kT.colvars.traj".
colvars: Saving collective variables state to "rest.colvars.state".
colvars: Synchronizing (emptying the buffer of) trajectory file "Run2_IC_Rg_175A_Es_3kT_Ens05kT.colvars.traj".
colvars: Saving collective variables state to "rest.colvars.state".
colvars: Synchronizing (emptying the buffer of) trajectory file "Run2_IC_Rg_175A_Es_3kT_Ens05kT.colvars.traj".
colvars: Saving collective variables state to "rest.colvars.state".
colvars: Synchronizing (emptying the buffer of) trajectory file "Run2_IC_Rg_175A_Es_3kT_Ens05kT.colvars.traj".
colvars: Saving collective variables state to "rest.colvars.state".
colvars: Synchronizing (emptying the buffer of) trajectory file "Run2_IC_Rg_175A_Es_3kT_Ens05kT.colvars.traj".
colvars: Saving collective variables state to "rest.colvars.state".
colvars: Synchronizing (emptying the buffer of) trajectory file "Run2_IC_Rg_175A_Es_3kT_Ens05kT.colvars.traj".
colvars: Saving collective variables state to "rest.colvars.state".
 3000000   -2116.9284    2454.9341    4677.3685    1635.8873    2935.9752    313.89482     5187 
colvars: Synchronizing (emptying the buffer of) trajectory file "Run2_IC_Rg_175A_Es_3kT_Ens05kT.colvars.traj".
colvars: Saving collective variables state to "rest.colvars.state".
colvars: Synchronizing (emptying the buffer of) trajectory file "Run2_IC_Rg_175A_Es_3kT_Ens05kT.colvars.traj".
colvars: Saving collective variables state to "rest.colvars.state".
colvars: Synchronizing (emptying the buffer of) trajectory file "Run2_IC_Rg_175A_Es_3kT_Ens05kT.colvars.traj".
colvars: Saving collective variables state to "rest.colvars.state".
colvars: Synchronizing (emptying the buffer of) trajectory file "Run2_IC_Rg_175A_Es_3kT_Ens05kT.colvars.traj".
colvars: Saving collective variables state to "rest.colvars.state".
colvars: Synchronizing (emptying the buffer of) trajectory file "Run2_IC_Rg_175A_Es_3kT_Ens05kT.colvars.traj".
colvars: Saving collective variables state to "rest.colvars.state".
colvars: Synchronizing (emptying the buffer of) trajectory file "Run2_IC_Rg_175A_Es_3kT_Ens05kT.colvars.traj".
colvars: Saving collective variables state to "rest.colvars.state".
colvars: Synchronizing (emptying the buffer of) trajectory file "Run2_IC_Rg_175A_Es_3kT_Ens05kT.colvars.traj".
colvars: Saving collective variables state to "rest.colvars.state".
colvars: Synchronizing (emptying the buffer of) trajectory file "Run2_IC_Rg_175A_Es_3kT_Ens05kT.colvars.traj".
colvars: Saving collective variables state to "rest.colvars.state".
colvars: Synchronizing (emptying the buffer of) trajectory file "Run2_IC_Rg_175A_Es_3kT_Ens05kT.colvars.traj".
colvars: Saving collective variables state to "rest.colvars.state".
colvars: Synchronizing (emptying the buffer of) trajectory file "Run2_IC_Rg_175A_Es_3kT_Ens05kT.colvars.traj".
colvars: Saving collective variables state to "rest.colvars.state".
colvars: Synchronizing (emptying the buffer of) trajectory file "Run2_IC_Rg_175A_Es_3kT_Ens05kT.colvars.traj".
colvars: Saving collective variables state to "rest.colvars.state".
colvars: Synchronizing (emptying the buffer of) trajectory file "Run2_IC_Rg_175A_Es_3kT_Ens05kT.colvars.traj".
colvars: Saving collective variables state to "rest.colvars.state".
colvars: Synchronizing (emptying the buffer of) trajectory file "Run2_IC_Rg_175A_Es_3kT_Ens05kT.colvars.traj".
colvars: Saving collective variables state to "rest.colvars.state".
colvars: Synchronizing (emptying the buffer of) trajectory file "Run2_IC_Rg_175A_Es_3kT_Ens05kT.colvars.traj".
colvars: Saving collective variables state to "rest.colvars.state".
colvars: Synchronizing (emptying the buffer of) trajectory file "Run2_IC_Rg_175A_Es_3kT_Ens05kT.colvars.traj".
colvars: Saving collective variables state to "rest.colvars.state".
colvars: Synchronizing (emptying the buffer of) trajectory file "Run2_IC_Rg_175A_Es_3kT_Ens05kT.colvars.traj".
colvars: Saving collective variables state to "rest.colvars.state".
colvars: Synchronizing (emptying the buffer of) trajectory file "Run2_IC_Rg_175A_Es_3kT_Ens05kT.colvars.traj".
colvars: Saving collective variables state to "rest.colvars.state".
colvars: Synchronizing (emptying the buffer of) trajectory file "Run2_IC_Rg_175A_Es_3kT_Ens05kT.colvars.traj".
colvars: Saving collective variables state to "rest.colvars.state".
colvars: Synchronizing (emptying the buffer of) trajectory file "Run2_IC_Rg_175A_Es_3kT_Ens05kT.colvars.traj".
colvars: Saving collective variables state to "rest.colvars.state".
colvars: Synchronizing (emptying the buffer of) trajectory file "Run2_IC_Rg_175A_Es_3kT_Ens05kT.colvars.traj".
colvars: Saving collective variables state to "rest.colvars.state".
 4000000   -2375.7138    2239.5273    4617.1151     1569.348    3045.8932    309.85126     5203 
colvars: Synchronizing (emptying the buffer of) trajectory file "Run2_IC_Rg_175A_Es_3kT_Ens05kT.colvars.traj".
colvars: Saving collective variables state to "rest.colvars.state".
colvars: Synchronizing (emptying the buffer of) trajectory file "Run2_IC_Rg_175A_Es_3kT_Ens05kT.colvars.traj".
colvars: Saving collective variables state to "rest.colvars.state".
colvars: Synchronizing (emptying the buffer of) trajectory file "Run2_IC_Rg_175A_Es_3kT_Ens05kT.colvars.traj".
colvars: Saving collective variables state to "rest.colvars.state".
colvars: Synchronizing (emptying the buffer of) trajectory file "Run2_IC_Rg_175A_Es_3kT_Ens05kT.colvars.traj".
colvars: Saving collective variables state to "rest.colvars.state".
colvars: Synchronizing (emptying the buffer of) trajectory file "Run2_IC_Rg_175A_Es_3kT_Ens05kT.colvars.traj".
colvars: Saving collective variables state to "rest.colvars.state".
colvars: Synchronizing (emptying the buffer of) trajectory file "Run2_IC_Rg_175A_Es_3kT_Ens05kT.colvars.traj".
colvars: Saving collective variables state to "rest.colvars.state".
colvars: Synchronizing (emptying the buffer of) trajectory file "Run2_IC_Rg_175A_Es_3kT_Ens05kT.colvars.traj".
colvars: Saving collective variables state to "rest.colvars.state".
colvars: Synchronizing (emptying the buffer of) trajectory file "Run2_IC_Rg_175A_Es_3kT_Ens05kT.colvars.traj".
colvars: Saving collective variables state to "rest.colvars.state".
colvars: Synchronizing (emptying the buffer of) trajectory file "Run2_IC_Rg_175A_Es_3kT_Ens05kT.colvars.traj".
colvars: Saving collective variables state to "rest.colvars.state".
colvars: Synchronizing (emptying the buffer of) trajectory file "Run2_IC_Rg_175A_Es_3kT_Ens05kT.colvars.traj".
colvars: Saving collective variables state to "rest.colvars.state".
colvars: Synchronizing (emptying the buffer of) trajectory file "Run2_IC_Rg_175A_Es_3kT_Ens05kT.colvars.traj".
colvars: Saving collective variables state to "rest.colvars.state".
colvars: Synchronizing (emptying the buffer of) trajectory file "Run2_IC_Rg_175A_Es_3kT_Ens05kT.colvars.traj".
colvars: Saving collective variables state to "rest.colvars.state".
colvars: Synchronizing (emptying the buffer of) trajectory file "Run2_IC_Rg_175A_Es_3kT_Ens05kT.colvars.traj".
colvars: Saving collective variables state to "rest.colvars.state".
colvars: Synchronizing (emptying the buffer of) trajectory file "Run2_IC_Rg_175A_Es_3kT_Ens05kT.colvars.traj".
colvars: Saving collective variables state to "rest.colvars.state".
colvars: Synchronizing (emptying the buffer of) trajectory file "Run2_IC_Rg_175A_Es_3kT_Ens05kT.colvars.traj".
colvars: Saving collective variables state to "rest.colvars.state".
colvars: Synchronizing (emptying the buffer of) trajectory file "Run2_IC_Rg_175A_Es_3kT_Ens05kT.colvars.traj".
colvars: Saving collective variables state to "rest.colvars.state".
colvars: Synchronizing (emptying the buffer of) trajectory file "Run2_IC_Rg_175A_Es_3kT_Ens05kT.colvars.traj".
colvars: Saving collective variables state to "rest.colvars.state".
colvars: Synchronizing (emptying the buffer of) trajectory file "Run2_IC_Rg_175A_Es_3kT_Ens05kT.colvars.traj".
colvars: Saving collective variables state to "rest.colvars.state".
colvars: Synchronizing (emptying the buffer of) trajectory file "Run2_IC_Rg_175A_Es_3kT_Ens05kT.colvars.traj".
colvars: Saving collective variables state to "rest.colvars.state".
colvars: Synchronizing (emptying the buffer of) trajectory file "Run2_IC_Rg_175A_Es_3kT_Ens05kT.colvars.traj".
colvars: Saving collective variables state to "rest.colvars.state".
 5000000   -2625.4659    1863.8984    4555.6284    1557.0953     2932.269    305.72493     5208 
colvars: Synchronizing (emptying the buffer of) trajectory file "Run2_IC_Rg_175A_Es_3kT_Ens05kT.colvars.traj".
colvars: Saving collective variables state to "rest.colvars.state".
colvars: Synchronizing (emptying the buffer of) trajectory file "Run2_IC_Rg_175A_Es_3kT_Ens05kT.colvars.traj".
colvars: Saving collective variables state to "rest.colvars.state".
colvars: Synchronizing (emptying the buffer of) trajectory file "Run2_IC_Rg_175A_Es_3kT_Ens05kT.colvars.traj".
colvars: Saving collective variables state to "rest.colvars.state".
colvars: Synchronizing (emptying the buffer of) trajectory file "Run2_IC_Rg_175A_Es_3kT_Ens05kT.colvars.traj".
colvars: Saving collective variables state to "rest.colvars.state".
colvars: Synchronizing (emptying the buffer of) trajectory file "Run2_IC_Rg_175A_Es_3kT_Ens05kT.colvars.traj".
colvars: Saving collective variables state to "rest.colvars.state".
colvars: Synchronizing (emptying the buffer of) trajectory file "Run2_IC_Rg_175A_Es_3kT_Ens05kT.colvars.traj".
colvars: Saving collective variables state to "rest.colvars.state".
colvars: Synchronizing (emptying the buffer of) trajectory file "Run2_IC_Rg_175A_Es_3kT_Ens05kT.colvars.traj".
colvars: Saving collective variables state to "rest.colvars.state".
colvars: Synchronizing (emptying the buffer of) trajectory file "Run2_IC_Rg_175A_Es_3kT_Ens05kT.colvars.traj".
colvars: Saving collective variables state to "rest.colvars.state".
colvars: Synchronizing (emptying the buffer of) trajectory file "Run2_IC_Rg_175A_Es_3kT_Ens05kT.colvars.traj".
colvars: Saving collective variables state to "rest.colvars.state".
colvars: Synchronizing (emptying the buffer of) trajectory file "Run2_IC_Rg_175A_Es_3kT_Ens05kT.colvars.traj".
colvars: Saving collective variables state to "rest.colvars.state".
colvars: Synchronizing (emptying the buffer of) trajectory file "Run2_IC_Rg_175A_Es_3kT_Ens05kT.colvars.traj".
colvars: Saving collective variables state to "rest.colvars.state".
colvars: Synchronizing (emptying the buffer of) trajectory file "Run2_IC_Rg_175A_Es_3kT_Ens05kT.colvars.traj".
colvars: Saving collective variables state to "rest.colvars.state".
colvars: Synchronizing (emptying the buffer of) trajectory file "Run2_IC_Rg_175A_Es_3kT_Ens05kT.colvars.traj".
colvars: Saving collective variables state to "rest.colvars.state".
colvars: Synchronizing (emptying the buffer of) trajectory file "Run2_IC_Rg_175A_Es_3kT_Ens05kT.colvars.traj".
colvars: Saving collective variables state to "rest.colvars.state".
colvars: Synchronizing (emptying the buffer of) trajectory file "Run2_IC_Rg_175A_Es_3kT_Ens05kT.colvars.traj".
colvars: Saving collective variables state to "rest.colvars.state".
colvars: Synchronizing (emptying the buffer of) trajectory file "Run2_IC_Rg_175A_Es_3kT_Ens05kT.colvars.traj".
colvars: Saving collective variables state to "rest.colvars.state".
colvars: Synchronizing (emptying the buffer of) trajectory file "Run2_IC_Rg_175A_Es_3kT_Ens05kT.colvars.traj".
colvars: Saving collective variables state to "rest.colvars.state".
colvars: Synchronizing (emptying the buffer of) trajectory file "Run2_IC_Rg_175A_Es_3kT_Ens05kT.colvars.traj".
colvars: Saving collective variables state to "rest.colvars.state".
colvars: Synchronizing (emptying the buffer of) trajectory file "Run2_IC_Rg_175A_Es_3kT_Ens05kT.colvars.traj".
colvars: Saving collective variables state to "rest.colvars.state".
colvars: Synchronizing (emptying the buffer of) trajectory file "Run2_IC_Rg_175A_Es_3kT_Ens05kT.colvars.traj".
colvars: Saving collective variables state to "rest.colvars.state".
 6000000   -2737.8901    1833.3567    4559.4305    1519.0327    3052.2141    305.98008     5214 
colvars: Synchronizing (emptying the buffer of) trajectory file "Run2_IC_Rg_175A_Es_3kT_Ens05kT.colvars.traj".
colvars: Saving collective variables state to "rest.colvars.state".
colvars: Synchronizing (emptying the buffer of) trajectory file "Run2_IC_Rg_175A_Es_3kT_Ens05kT.colvars.traj".
colvars: Saving collective variables state to "rest.colvars.state".
colvars: Synchronizing (emptying the buffer of) trajectory file "Run2_IC_Rg_175A_Es_3kT_Ens05kT.colvars.traj".
colvars: Saving collective variables state to "rest.colvars.state".
colvars: Synchronizing (emptying the buffer of) trajectory file "Run2_IC_Rg_175A_Es_3kT_Ens05kT.colvars.traj".
colvars: Saving collective variables state to "rest.colvars.state".
colvars: Synchronizing (emptying the buffer of) trajectory file "Run2_IC_Rg_175A_Es_3kT_Ens05kT.colvars.traj".
colvars: Saving collective variables state to "rest.colvars.state".
colvars: Synchronizing (emptying the buffer of) trajectory file "Run2_IC_Rg_175A_Es_3kT_Ens05kT.colvars.traj".
colvars: Saving collective variables state to "rest.colvars.state".
colvars: Synchronizing (emptying the buffer of) trajectory file "Run2_IC_Rg_175A_Es_3kT_Ens05kT.colvars.traj".
colvars: Saving collective variables state to "rest.colvars.state".
colvars: Synchronizing (emptying the buffer of) trajectory file "Run2_IC_Rg_175A_Es_3kT_Ens05kT.colvars.traj".
colvars: Saving collective variables state to "rest.colvars.state".
colvars: Synchronizing (emptying the buffer of) trajectory file "Run2_IC_Rg_175A_Es_3kT_Ens05kT.colvars.traj".
colvars: Saving collective variables state to "rest.colvars.state".
colvars: Synchronizing (emptying the buffer of) trajectory file "Run2_IC_Rg_175A_Es_3kT_Ens05kT.colvars.traj".
colvars: Saving collective variables state to "rest.colvars.state".
colvars: Synchronizing (emptying the buffer of) trajectory file "Run2_IC_Rg_175A_Es_3kT_Ens05kT.colvars.traj".
colvars: Saving collective variables state to "rest.colvars.state".
colvars: Synchronizing (emptying the buffer of) trajectory file "Run2_IC_Rg_175A_Es_3kT_Ens05kT.colvars.traj".
colvars: Saving collective variables state to "rest.colvars.state".
colvars: Synchronizing (emptying the buffer of) trajectory file "Run2_IC_Rg_175A_Es_3kT_Ens05kT.colvars.traj".
colvars: Saving collective variables state to "rest.colvars.state".
colvars: Synchronizing (emptying the buffer of) trajectory file "Run2_IC_Rg_175A_Es_3kT_Ens05kT.colvars.traj".
colvars: Saving collective variables state to "rest.colvars.state".
colvars: Synchronizing (emptying the buffer of) trajectory file "Run2_IC_Rg_175A_Es_3kT_Ens05kT.colvars.traj".
colvars: Saving collective variables state to "rest.colvars.state".
colvars: Synchronizing (emptying the buffer of) trajectory file "Run2_IC_Rg_175A_Es_3kT_Ens05kT.colvars.traj".
colvars: Saving collective variables state to "rest.colvars.state".
colvars: Synchronizing (emptying the buffer of) trajectory file "Run2_IC_Rg_175A_Es_3kT_Ens05kT.colvars.traj".
colvars: Saving collective variables state to "rest.colvars.state".
colvars: Synchronizing (emptying the buffer of) trajectory file "Run2_IC_Rg_175A_Es_3kT_Ens05kT.colvars.traj".
colvars: Saving collective variables state to "rest.colvars.state".
colvars: Synchronizing (emptying the buffer of) trajectory file "Run2_IC_Rg_175A_Es_3kT_Ens05kT.colvars.traj".
colvars: Saving collective variables state to "rest.colvars.state".
colvars: Synchronizing (emptying the buffer of) trajectory file "Run2_IC_Rg_175A_Es_3kT_Ens05kT.colvars.traj".
colvars: Saving collective variables state to "rest.colvars.state".
 7000000   -2807.2048      1709.21     4629.549    1519.5539    2996.8609    310.68569     5222 
colvars: Synchronizing (emptying the buffer of) trajectory file "Run2_IC_Rg_175A_Es_3kT_Ens05kT.colvars.traj".
colvars: Saving collective variables state to "rest.colvars.state".
colvars: Synchronizing (emptying the buffer of) trajectory file "Run2_IC_Rg_175A_Es_3kT_Ens05kT.colvars.traj".
colvars: Saving collective variables state to "rest.colvars.state".
colvars: Synchronizing (emptying the buffer of) trajectory file "Run2_IC_Rg_175A_Es_3kT_Ens05kT.colvars.traj".
colvars: Saving collective variables state to "rest.colvars.state".
colvars: Synchronizing (emptying the buffer of) trajectory file "Run2_IC_Rg_175A_Es_3kT_Ens05kT.colvars.traj".
colvars: Saving collective variables state to "rest.colvars.state".
colvars: Synchronizing (emptying the buffer of) trajectory file "Run2_IC_Rg_175A_Es_3kT_Ens05kT.colvars.traj".
colvars: Saving collective variables state to "rest.colvars.state".
colvars: Synchronizing (emptying the buffer of) trajectory file "Run2_IC_Rg_175A_Es_3kT_Ens05kT.colvars.traj".
colvars: Saving collective variables state to "rest.colvars.state".
colvars: Synchronizing (emptying the buffer of) trajectory file "Run2_IC_Rg_175A_Es_3kT_Ens05kT.colvars.traj".
colvars: Saving collective variables state to "rest.colvars.state".
colvars: Synchronizing (emptying the buffer of) trajectory file "Run2_IC_Rg_175A_Es_3kT_Ens05kT.colvars.traj".
colvars: Saving collective variables state to "rest.colvars.state".
colvars: Synchronizing (emptying the buffer of) trajectory file "Run2_IC_Rg_175A_Es_3kT_Ens05kT.colvars.traj".
colvars: Saving collective variables state to "rest.colvars.state".
colvars: Synchronizing (emptying the buffer of) trajectory file "Run2_IC_Rg_175A_Es_3kT_Ens05kT.colvars.traj".
colvars: Saving collective variables state to "rest.colvars.state".
colvars: Synchronizing (emptying the buffer of) trajectory file "Run2_IC_Rg_175A_Es_3kT_Ens05kT.colvars.traj".
colvars: Saving collective variables state to "rest.colvars.state".
colvars: Synchronizing (emptying the buffer of) trajectory file "Run2_IC_Rg_175A_Es_3kT_Ens05kT.colvars.traj".
colvars: Saving collective variables state to "rest.colvars.state".
colvars: Synchronizing (emptying the buffer of) trajectory file "Run2_IC_Rg_175A_Es_3kT_Ens05kT.colvars.traj".
colvars: Saving collective variables state to "rest.colvars.state".
colvars: Synchronizing (emptying the buffer of) trajectory file "Run2_IC_Rg_175A_Es_3kT_Ens05kT.colvars.traj".
colvars: Saving collective variables state to "rest.colvars.state".
colvars: Synchronizing (emptying the buffer of) trajectory file "Run2_IC_Rg_175A_Es_3kT_Ens05kT.colvars.traj".
colvars: Saving collective variables state to "rest.colvars.state".
colvars: Synchronizing (emptying the buffer of) trajectory file "Run2_IC_Rg_175A_Es_3kT_Ens05kT.colvars.traj".
colvars: Saving collective variables state to "rest.colvars.state".
colvars: Synchronizing (emptying the buffer of) trajectory file "Run2_IC_Rg_175A_Es_3kT_Ens05kT.colvars.traj".
colvars: Saving collective variables state to "rest.colvars.state".
colvars: Synchronizing (emptying the buffer of) trajectory file "Run2_IC_Rg_175A_Es_3kT_Ens05kT.colvars.traj".
colvars: Saving collective variables state to "rest.colvars.state".
colvars: Synchronizing (emptying the buffer of) trajectory file "Run2_IC_Rg_175A_Es_3kT_Ens05kT.colvars.traj".
colvars: Saving collective variables state to "rest.colvars.state".
colvars: Synchronizing (emptying the buffer of) trajectory file "Run2_IC_Rg_175A_Es_3kT_Ens05kT.colvars.traj".
colvars: Saving collective variables state to "rest.colvars.state".
 8000000   -2917.5099    1676.3425    4571.5595    1578.1074     3015.745    306.79405     5235 
colvars: Synchronizing (emptying the buffer of) trajectory file "Run2_IC_Rg_175A_Es_3kT_Ens05kT.colvars.traj".
colvars: Saving collective variables state to "rest.colvars.state".
colvars: Synchronizing (emptying the buffer of) trajectory file "Run2_IC_Rg_175A_Es_3kT_Ens05kT.colvars.traj".
colvars: Saving collective variables state to "rest.colvars.state".
colvars: Synchronizing (emptying the buffer of) trajectory file "Run2_IC_Rg_175A_Es_3kT_Ens05kT.colvars.traj".
colvars: Saving collective variables state to "rest.colvars.state".
colvars: Synchronizing (emptying the buffer of) trajectory file "Run2_IC_Rg_175A_Es_3kT_Ens05kT.colvars.traj".
colvars: Saving collective variables state to "rest.colvars.state".
colvars: Synchronizing (emptying the buffer of) trajectory file "Run2_IC_Rg_175A_Es_3kT_Ens05kT.colvars.traj".
colvars: Saving collective variables state to "rest.colvars.state".
colvars: Synchronizing (emptying the buffer of) trajectory file "Run2_IC_Rg_175A_Es_3kT_Ens05kT.colvars.traj".
colvars: Saving collective variables state to "rest.colvars.state".
colvars: Synchronizing (emptying the buffer of) trajectory file "Run2_IC_Rg_175A_Es_3kT_Ens05kT.colvars.traj".
colvars: Saving collective variables state to "rest.colvars.state".
colvars: Synchronizing (emptying the buffer of) trajectory file "Run2_IC_Rg_175A_Es_3kT_Ens05kT.colvars.traj".
colvars: Saving collective variables state to "rest.colvars.state".
colvars: Synchronizing (emptying the buffer of) trajectory file "Run2_IC_Rg_175A_Es_3kT_Ens05kT.colvars.traj".
colvars: Saving collective variables state to "rest.colvars.state".
colvars: Synchronizing (emptying the buffer of) trajectory file "Run2_IC_Rg_175A_Es_3kT_Ens05kT.colvars.traj".
colvars: Saving collective variables state to "rest.colvars.state".
colvars: Synchronizing (emptying the buffer of) trajectory file "Run2_IC_Rg_175A_Es_3kT_Ens05kT.colvars.traj".
colvars: Saving collective variables state to "rest.colvars.state".
colvars: Synchronizing (emptying the buffer of) trajectory file "Run2_IC_Rg_175A_Es_3kT_Ens05kT.colvars.traj".
colvars: Saving collective variables state to "rest.colvars.state".
colvars: Synchronizing (emptying the buffer of) trajectory file "Run2_IC_Rg_175A_Es_3kT_Ens05kT.colvars.traj".
colvars: Saving collective variables state to "rest.colvars.state".
colvars: Synchronizing (emptying the buffer of) trajectory file "Run2_IC_Rg_175A_Es_3kT_Ens05kT.colvars.traj".
colvars: Saving collective variables state to "rest.colvars.state".
colvars: Synchronizing (emptying the buffer of) trajectory file "Run2_IC_Rg_175A_Es_3kT_Ens05kT.colvars.traj".
colvars: Saving collective variables state to "rest.colvars.state".
colvars: Synchronizing (emptying the buffer of) trajectory file "Run2_IC_Rg_175A_Es_3kT_Ens05kT.colvars.traj".
colvars: Saving collective variables state to "rest.colvars.state".
colvars: Synchronizing (emptying the buffer of) trajectory file "Run2_IC_Rg_175A_Es_3kT_Ens05kT.colvars.traj".
colvars: Saving collective variables state to "rest.colvars.state".
colvars: Synchronizing (emptying the buffer of) trajectory file "Run2_IC_Rg_175A_Es_3kT_Ens05kT.colvars.traj".
colvars: Saving collective variables state to "rest.colvars.state".
colvars: Synchronizing (emptying the buffer of) trajectory file "Run2_IC_Rg_175A_Es_3kT_Ens05kT.colvars.traj".
colvars: Saving collective variables state to "rest.colvars.state".
colvars: Synchronizing (emptying the buffer of) trajectory file "Run2_IC_Rg_175A_Es_3kT_Ens05kT.colvars.traj".
colvars: Saving collective variables state to "rest.colvars.state".
 9000000   -3087.6524    1477.7335    4610.0006    1544.1187    3021.2672    309.37381     5235 
colvars: Synchronizing (emptying the buffer of) trajectory file "Run2_IC_Rg_175A_Es_3kT_Ens05kT.colvars.traj".
colvars: Saving collective variables state to "rest.colvars.state".
colvars: Synchronizing (emptying the buffer of) trajectory file "Run2_IC_Rg_175A_Es_3kT_Ens05kT.colvars.traj".
colvars: Saving collective variables state to "rest.colvars.state".
colvars: Synchronizing (emptying the buffer of) trajectory file "Run2_IC_Rg_175A_Es_3kT_Ens05kT.colvars.traj".
colvars: Saving collective variables state to "rest.colvars.state".
colvars: Synchronizing (emptying the buffer of) trajectory file "Run2_IC_Rg_175A_Es_3kT_Ens05kT.colvars.traj".
colvars: Saving collective variables state to "rest.colvars.state".
colvars: Synchronizing (emptying the buffer of) trajectory file "Run2_IC_Rg_175A_Es_3kT_Ens05kT.colvars.traj".
colvars: Saving collective variables state to "rest.colvars.state".
colvars: Synchronizing (emptying the buffer of) trajectory file "Run2_IC_Rg_175A_Es_3kT_Ens05kT.colvars.traj".
colvars: Saving collective variables state to "rest.colvars.state".
colvars: Synchronizing (emptying the buffer of) trajectory file "Run2_IC_Rg_175A_Es_3kT_Ens05kT.colvars.traj".
colvars: Saving collective variables state to "rest.colvars.state".
colvars: Synchronizing (emptying the buffer of) trajectory file "Run2_IC_Rg_175A_Es_3kT_Ens05kT.colvars.traj".
colvars: Saving collective variables state to "rest.colvars.state".
colvars: Synchronizing (emptying the buffer of) trajectory file "Run2_IC_Rg_175A_Es_3kT_Ens05kT.colvars.traj".
colvars: Saving collective variables state to "rest.colvars.state".
colvars: Synchronizing (emptying the buffer of) trajectory file "Run2_IC_Rg_175A_Es_3kT_Ens05kT.colvars.traj".
colvars: Saving collective variables state to "rest.colvars.state".
colvars: Synchronizing (emptying the buffer of) trajectory file "Run2_IC_Rg_175A_Es_3kT_Ens05kT.colvars.traj".
colvars: Saving collective variables state to "rest.colvars.state".
colvars: Synchronizing (emptying the buffer of) trajectory file "Run2_IC_Rg_175A_Es_3kT_Ens05kT.colvars.traj".
colvars: Saving collective variables state to "rest.colvars.state".
colvars: Synchronizing (emptying the buffer of) trajectory file "Run2_IC_Rg_175A_Es_3kT_Ens05kT.colvars.traj".
colvars: Saving collective variables state to "rest.colvars.state".
colvars: Synchronizing (emptying the buffer of) trajectory file "Run2_IC_Rg_175A_Es_3kT_Ens05kT.colvars.traj".
colvars: Saving collective variables state to "rest.colvars.state".
colvars: Synchronizing (emptying the buffer of) trajectory file "Run2_IC_Rg_175A_Es_3kT_Ens05kT.colvars.traj".
colvars: Saving collective variables state to "rest.colvars.state".
colvars: Synchronizing (emptying the buffer of) trajectory file "Run2_IC_Rg_175A_Es_3kT_Ens05kT.colvars.traj".
colvars: Saving collective variables state to "rest.colvars.state".
colvars: Synchronizing (emptying the buffer of) trajectory file "Run2_IC_Rg_175A_Es_3kT_Ens05kT.colvars.traj".
colvars: Saving collective variables state to "rest.colvars.state".
colvars: Synchronizing (emptying the buffer of) trajectory file "Run2_IC_Rg_175A_Es_3kT_Ens05kT.colvars.traj".
colvars: Saving collective variables state to "rest.colvars.state".
colvars: Synchronizing (emptying the buffer of) trajectory file "Run2_IC_Rg_175A_Es_3kT_Ens05kT.colvars.traj".
colvars: Saving collective variables state to "rest.colvars.state".
colvars: Synchronizing (emptying the buffer of) trajectory file "Run2_IC_Rg_175A_Es_3kT_Ens05kT.colvars.traj".
colvars: Saving collective variables state to "rest.colvars.state".
10000000    -3185.338    1469.3368    4587.7461    1582.4361    3072.2387    307.88033     5234 
colvars: Synchronizing (emptying the buffer of) trajectory file "Run2_IC_Rg_175A_Es_3kT_Ens05kT.colvars.traj".
colvars: Saving collective variables state to "rest.colvars.state".
colvars: Synchronizing (emptying the buffer of) trajectory file "Run2_IC_Rg_175A_Es_3kT_Ens05kT.colvars.traj".
colvars: Saving collective variables state to "rest.colvars.state".
colvars: Synchronizing (emptying the buffer of) trajectory file "Run2_IC_Rg_175A_Es_3kT_Ens05kT.colvars.traj".
colvars: Saving collective variables state to "rest.colvars.state".
colvars: Synchronizing (emptying the buffer of) trajectory file "Run2_IC_Rg_175A_Es_3kT_Ens05kT.colvars.traj".
colvars: Saving collective variables state to "rest.colvars.state".
colvars: Synchronizing (emptying the buffer of) trajectory file "Run2_IC_Rg_175A_Es_3kT_Ens05kT.colvars.traj".
colvars: Saving collective variables state to "rest.colvars.state".
colvars: Synchronizing (emptying the buffer of) trajectory file "Run2_IC_Rg_175A_Es_3kT_Ens05kT.colvars.traj".
colvars: Saving collective variables state to "rest.colvars.state".
colvars: Synchronizing (emptying the buffer of) trajectory file "Run2_IC_Rg_175A_Es_3kT_Ens05kT.colvars.traj".
colvars: Saving collective variables state to "rest.colvars.state".
colvars: Synchronizing (emptying the buffer of) trajectory file "Run2_IC_Rg_175A_Es_3kT_Ens05kT.colvars.traj".
colvars: Saving collective variables state to "rest.colvars.state".
colvars: Synchronizing (emptying the buffer of) trajectory file "Run2_IC_Rg_175A_Es_3kT_Ens05kT.colvars.traj".
colvars: Saving collective variables state to "rest.colvars.state".
colvars: Synchronizing (emptying the buffer of) trajectory file "Run2_IC_Rg_175A_Es_3kT_Ens05kT.colvars.traj".
colvars: Saving collective variables state to "rest.colvars.state".
colvars: Synchronizing (emptying the buffer of) trajectory file "Run2_IC_Rg_175A_Es_3kT_Ens05kT.colvars.traj".
colvars: Saving collective variables state to "rest.colvars.state".
colvars: Synchronizing (emptying the buffer of) trajectory file "Run2_IC_Rg_175A_Es_3kT_Ens05kT.colvars.traj".
colvars: Saving collective variables state to "rest.colvars.state".
colvars: Synchronizing (emptying the buffer of) trajectory file "Run2_IC_Rg_175A_Es_3kT_Ens05kT.colvars.traj".
colvars: Saving collective variables state to "rest.colvars.state".
colvars: Synchronizing (emptying the buffer of) trajectory file "Run2_IC_Rg_175A_Es_3kT_Ens05kT.colvars.traj".
colvars: Saving collective variables state to "rest.colvars.state".
colvars: Synchronizing (emptying the buffer of) trajectory file "Run2_IC_Rg_175A_Es_3kT_Ens05kT.colvars.traj".
colvars: Saving collective variables state to "rest.colvars.state".
colvars: Synchronizing (emptying the buffer of) trajectory file "Run2_IC_Rg_175A_Es_3kT_Ens05kT.colvars.traj".
colvars: Saving collective variables state to "rest.colvars.state".
colvars: Synchronizing (emptying the buffer of) trajectory file "Run2_IC_Rg_175A_Es_3kT_Ens05kT.colvars.traj".
colvars: Saving collective variables state to "rest.colvars.state".
colvars: Synchronizing (emptying the buffer of) trajectory file "Run2_IC_Rg_175A_Es_3kT_Ens05kT.colvars.traj".
colvars: Saving collective variables state to "rest.colvars.state".
colvars: Synchronizing (emptying the buffer of) trajectory file "Run2_IC_Rg_175A_Es_3kT_Ens05kT.colvars.traj".
colvars: Saving collective variables state to "rest.colvars.state".
colvars: Synchronizing (emptying the buffer of) trajectory file "Run2_IC_Rg_175A_Es_3kT_Ens05kT.colvars.traj".
colvars: Saving collective variables state to "rest.colvars.state".
11000000   -3305.2173    1256.9032    4631.6673    1556.2037    3005.9167    310.82785     5245 
colvars: Synchronizing (emptying the buffer of) trajectory file "Run2_IC_Rg_175A_Es_3kT_Ens05kT.colvars.traj".
colvars: Saving collective variables state to "rest.colvars.state".
colvars: Synchronizing (emptying the buffer of) trajectory file "Run2_IC_Rg_175A_Es_3kT_Ens05kT.colvars.traj".
colvars: Saving collective variables state to "rest.colvars.state".
colvars: Synchronizing (emptying the buffer of) trajectory file "Run2_IC_Rg_175A_Es_3kT_Ens05kT.colvars.traj".
colvars: Saving collective variables state to "rest.colvars.state".
colvars: Synchronizing (emptying the buffer of) trajectory file "Run2_IC_Rg_175A_Es_3kT_Ens05kT.colvars.traj".
colvars: Saving collective variables state to "rest.colvars.state".
colvars: Synchronizing (emptying the buffer of) trajectory file "Run2_IC_Rg_175A_Es_3kT_Ens05kT.colvars.traj".
colvars: Saving collective variables state to "rest.colvars.state".
colvars: Synchronizing (emptying the buffer of) trajectory file "Run2_IC_Rg_175A_Es_3kT_Ens05kT.colvars.traj".
colvars: Saving collective variables state to "rest.colvars.state".
colvars: Synchronizing (emptying the buffer of) trajectory file "Run2_IC_Rg_175A_Es_3kT_Ens05kT.colvars.traj".
colvars: Saving collective variables state to "rest.colvars.state".
colvars: Synchronizing (emptying the buffer of) trajectory file "Run2_IC_Rg_175A_Es_3kT_Ens05kT.colvars.traj".
colvars: Saving collective variables state to "rest.colvars.state".
colvars: Synchronizing (emptying the buffer of) trajectory file "Run2_IC_Rg_175A_Es_3kT_Ens05kT.colvars.traj".
colvars: Saving collective variables state to "rest.colvars.state".
colvars: Synchronizing (emptying the buffer of) trajectory file "Run2_IC_Rg_175A_Es_3kT_Ens05kT.colvars.traj".
colvars: Saving collective variables state to "rest.colvars.state".
colvars: Synchronizing (emptying the buffer of) trajectory file "Run2_IC_Rg_175A_Es_3kT_Ens05kT.colvars.traj".
colvars: Saving collective variables state to "rest.colvars.state".
colvars: Synchronizing (emptying the buffer of) trajectory file "Run2_IC_Rg_175A_Es_3kT_Ens05kT.colvars.traj".
colvars: Saving collective variables state to "rest.colvars.state".
colvars: Synchronizing (emptying the buffer of) trajectory file "Run2_IC_Rg_175A_Es_3kT_Ens05kT.colvars.traj".
colvars: Saving collective variables state to "rest.colvars.state".
colvars: Synchronizing (emptying the buffer of) trajectory file "Run2_IC_Rg_175A_Es_3kT_Ens05kT.colvars.traj".
colvars: Saving collective variables state to "rest.colvars.state".
colvars: Synchronizing (emptying the buffer of) trajectory file "Run2_IC_Rg_175A_Es_3kT_Ens05kT.colvars.traj".
colvars: Saving collective variables state to "rest.colvars.state".
colvars: Synchronizing (emptying the buffer of) trajectory file "Run2_IC_Rg_175A_Es_3kT_Ens05kT.colvars.traj".
colvars: Saving collective variables state to "rest.colvars.state".
colvars: Synchronizing (emptying the buffer of) trajectory file "Run2_IC_Rg_175A_Es_3kT_Ens05kT.colvars.traj".
colvars: Saving collective variables state to "rest.colvars.state".
colvars: Synchronizing (emptying the buffer of) trajectory file "Run2_IC_Rg_175A_Es_3kT_Ens05kT.colvars.traj".
colvars: Saving collective variables state to "rest.colvars.state".
colvars: Synchronizing (emptying the buffer of) trajectory file "Run2_IC_Rg_175A_Es_3kT_Ens05kT.colvars.traj".
colvars: Saving collective variables state to "rest.colvars.state".
colvars: Synchronizing (emptying the buffer of) trajectory file "Run2_IC_Rg_175A_Es_3kT_Ens05kT.colvars.traj".
colvars: Saving collective variables state to "rest.colvars.state".
12000000   -3424.7706    1195.0351    4617.7701     1538.524    3081.2818    309.89521     5248 
colvars: Synchronizing (emptying the buffer of) trajectory file "Run2_IC_Rg_175A_Es_3kT_Ens05kT.colvars.traj".
colvars: Saving collective variables state to "rest.colvars.state".
colvars: Synchronizing (emptying the buffer of) trajectory file "Run2_IC_Rg_175A_Es_3kT_Ens05kT.colvars.traj".
colvars: Saving collective variables state to "rest.colvars.state".
colvars: Synchronizing (emptying the buffer of) trajectory file "Run2_IC_Rg_175A_Es_3kT_Ens05kT.colvars.traj".
colvars: Saving collective variables state to "rest.colvars.state".
colvars: Synchronizing (emptying the buffer of) trajectory file "Run2_IC_Rg_175A_Es_3kT_Ens05kT.colvars.traj".
colvars: Saving collective variables state to "rest.colvars.state".
colvars: Synchronizing (emptying the buffer of) trajectory file "Run2_IC_Rg_175A_Es_3kT_Ens05kT.colvars.traj".
colvars: Saving collective variables state to "rest.colvars.state".
colvars: Synchronizing (emptying the buffer of) trajectory file "Run2_IC_Rg_175A_Es_3kT_Ens05kT.colvars.traj".
colvars: Saving collective variables state to "rest.colvars.state".
colvars: Synchronizing (emptying the buffer of) trajectory file "Run2_IC_Rg_175A_Es_3kT_Ens05kT.colvars.traj".
colvars: Saving collective variables state to "rest.colvars.state".
colvars: Synchronizing (emptying the buffer of) trajectory file "Run2_IC_Rg_175A_Es_3kT_Ens05kT.colvars.traj".
colvars: Saving collective variables state to "rest.colvars.state".
colvars: Synchronizing (emptying the buffer of) trajectory file "Run2_IC_Rg_175A_Es_3kT_Ens05kT.colvars.traj".
colvars: Saving collective variables state to "rest.colvars.state".
colvars: Synchronizing (emptying the buffer of) trajectory file "Run2_IC_Rg_175A_Es_3kT_Ens05kT.colvars.traj".
colvars: Saving collective variables state to "rest.colvars.state".
colvars: Synchronizing (emptying the buffer of) trajectory file "Run2_IC_Rg_175A_Es_3kT_Ens05kT.colvars.traj".
colvars: Saving collective variables state to "rest.colvars.state".
colvars: Synchronizing (emptying the buffer of) trajectory file "Run2_IC_Rg_175A_Es_3kT_Ens05kT.colvars.traj".
colvars: Saving collective variables state to "rest.colvars.state".
colvars: Synchronizing (emptying the buffer of) trajectory file "Run2_IC_Rg_175A_Es_3kT_Ens05kT.colvars.traj".
colvars: Saving collective variables state to "rest.colvars.state".
colvars: Synchronizing (emptying the buffer of) trajectory file "Run2_IC_Rg_175A_Es_3kT_Ens05kT.colvars.traj".
colvars: Saving collective variables state to "rest.colvars.state".
colvars: Synchronizing (emptying the buffer of) trajectory file "Run2_IC_Rg_175A_Es_3kT_Ens05kT.colvars.traj".
colvars: Saving collective variables state to "rest.colvars.state".
colvars: Synchronizing (emptying the buffer of) trajectory file "Run2_IC_Rg_175A_Es_3kT_Ens05kT.colvars.traj".
colvars: Saving collective variables state to "rest.colvars.state".
colvars: Synchronizing (emptying the buffer of) trajectory file "Run2_IC_Rg_175A_Es_3kT_Ens05kT.colvars.traj".
colvars: Saving collective variables state to "rest.colvars.state".
colvars: Synchronizing (emptying the buffer of) trajectory file "Run2_IC_Rg_175A_Es_3kT_Ens05kT.colvars.traj".
colvars: Saving collective variables state to "rest.colvars.state".
colvars: Synchronizing (emptying the buffer of) trajectory file "Run2_IC_Rg_175A_Es_3kT_Ens05kT.colvars.traj".
colvars: Saving collective variables state to "rest.colvars.state".
colvars: Synchronizing (emptying the buffer of) trajectory file "Run2_IC_Rg_175A_Es_3kT_Ens05kT.colvars.traj".
colvars: Saving collective variables state to "rest.colvars.state".
13000000    -3431.448    1161.8891    4648.3512     1583.644    3009.6932    311.94749     5242 
colvars: Synchronizing (emptying the buffer of) trajectory file "Run2_IC_Rg_175A_Es_3kT_Ens05kT.colvars.traj".
colvars: Saving collective variables state to "rest.colvars.state".
colvars: Synchronizing (emptying the buffer of) trajectory file "Run2_IC_Rg_175A_Es_3kT_Ens05kT.colvars.traj".
colvars: Saving collective variables state to "rest.colvars.state".
colvars: Synchronizing (emptying the buffer of) trajectory file "Run2_IC_Rg_175A_Es_3kT_Ens05kT.colvars.traj".
colvars: Saving collective variables state to "rest.colvars.state".
colvars: Synchronizing (emptying the buffer of) trajectory file "Run2_IC_Rg_175A_Es_3kT_Ens05kT.colvars.traj".
colvars: Saving collective variables state to "rest.colvars.state".
colvars: Synchronizing (emptying the buffer of) trajectory file "Run2_IC_Rg_175A_Es_3kT_Ens05kT.colvars.traj".
colvars: Saving collective variables state to "rest.colvars.state".
colvars: Synchronizing (emptying the buffer of) trajectory file "Run2_IC_Rg_175A_Es_3kT_Ens05kT.colvars.traj".
colvars: Saving collective variables state to "rest.colvars.state".
colvars: Synchronizing (emptying the buffer of) trajectory file "Run2_IC_Rg_175A_Es_3kT_Ens05kT.colvars.traj".
colvars: Saving collective variables state to "rest.colvars.state".
colvars: Synchronizing (emptying the buffer of) trajectory file "Run2_IC_Rg_175A_Es_3kT_Ens05kT.colvars.traj".
colvars: Saving collective variables state to "rest.colvars.state".
colvars: Synchronizing (emptying the buffer of) trajectory file "Run2_IC_Rg_175A_Es_3kT_Ens05kT.colvars.traj".
colvars: Saving collective variables state to "rest.colvars.state".
colvars: Synchronizing (emptying the buffer of) trajectory file "Run2_IC_Rg_175A_Es_3kT_Ens05kT.colvars.traj".
colvars: Saving collective variables state to "rest.colvars.state".
colvars: Synchronizing (emptying the buffer of) trajectory file "Run2_IC_Rg_175A_Es_3kT_Ens05kT.colvars.traj".
colvars: Saving collective variables state to "rest.colvars.state".
colvars: Synchronizing (emptying the buffer of) trajectory file "Run2_IC_Rg_175A_Es_3kT_Ens05kT.colvars.traj".
colvars: Saving collective variables state to "rest.colvars.state".
colvars: Synchronizing (emptying the buffer of) trajectory file "Run2_IC_Rg_175A_Es_3kT_Ens05kT.colvars.traj".
colvars: Saving collective variables state to "rest.colvars.state".
colvars: Synchronizing (emptying the buffer of) trajectory file "Run2_IC_Rg_175A_Es_3kT_Ens05kT.colvars.traj".
colvars: Saving collective variables state to "rest.colvars.state".
colvars: Synchronizing (emptying the buffer of) trajectory file "Run2_IC_Rg_175A_Es_3kT_Ens05kT.colvars.traj".
colvars: Saving collective variables state to "rest.colvars.state".
colvars: Synchronizing (emptying the buffer of) trajectory file "Run2_IC_Rg_175A_Es_3kT_Ens05kT.colvars.traj".
colvars: Saving collective variables state to "rest.colvars.state".
colvars: Synchronizing (emptying the buffer of) trajectory file "Run2_IC_Rg_175A_Es_3kT_Ens05kT.colvars.traj".
colvars: Saving collective variables state to "rest.colvars.state".
colvars: Synchronizing (emptying the buffer of) trajectory file "Run2_IC_Rg_175A_Es_3kT_Ens05kT.colvars.traj".
colvars: Saving collective variables state to "rest.colvars.state".
colvars: Synchronizing (emptying the buffer of) trajectory file "Run2_IC_Rg_175A_Es_3kT_Ens05kT.colvars.traj".
colvars: Saving collective variables state to "rest.colvars.state".
colvars: Synchronizing (emptying the buffer of) trajectory file "Run2_IC_Rg_175A_Es_3kT_Ens05kT.colvars.traj".
colvars: Saving collective variables state to "rest.colvars.state".
14000000   -3412.2023    1138.3809    4627.6337    1548.8056    3001.7775    310.55715     5248 
colvars: Synchronizing (emptying the buffer of) trajectory file "Run2_IC_Rg_175A_Es_3kT_Ens05kT.colvars.traj".
colvars: Saving collective variables state to "rest.colvars.state".
colvars: Synchronizing (emptying the buffer of) trajectory file "Run2_IC_Rg_175A_Es_3kT_Ens05kT.colvars.traj".
colvars: Saving collective variables state to "rest.colvars.state".
colvars: Synchronizing (emptying the buffer of) trajectory file "Run2_IC_Rg_175A_Es_3kT_Ens05kT.colvars.traj".
colvars: Saving collective variables state to "rest.colvars.state".
colvars: Synchronizing (emptying the buffer of) trajectory file "Run2_IC_Rg_175A_Es_3kT_Ens05kT.colvars.traj".
colvars: Saving collective variables state to "rest.colvars.state".
colvars: Synchronizing (emptying the buffer of) trajectory file "Run2_IC_Rg_175A_Es_3kT_Ens05kT.colvars.traj".
colvars: Saving collective variables state to "rest.colvars.state".
colvars: Synchronizing (emptying the buffer of) trajectory file "Run2_IC_Rg_175A_Es_3kT_Ens05kT.colvars.traj".
colvars: Saving collective variables state to "rest.colvars.state".
colvars: Synchronizing (emptying the buffer of) trajectory file "Run2_IC_Rg_175A_Es_3kT_Ens05kT.colvars.traj".
colvars: Saving collective variables state to "rest.colvars.state".
colvars: Synchronizing (emptying the buffer of) trajectory file "Run2_IC_Rg_175A_Es_3kT_Ens05kT.colvars.traj".
colvars: Saving collective variables state to "rest.colvars.state".
colvars: Synchronizing (emptying the buffer of) trajectory file "Run2_IC_Rg_175A_Es_3kT_Ens05kT.colvars.traj".
colvars: Saving collective variables state to "rest.colvars.state".
colvars: Synchronizing (emptying the buffer of) trajectory file "Run2_IC_Rg_175A_Es_3kT_Ens05kT.colvars.traj".
colvars: Saving collective variables state to "rest.colvars.state".
colvars: Synchronizing (emptying the buffer of) trajectory file "Run2_IC_Rg_175A_Es_3kT_Ens05kT.colvars.traj".
colvars: Saving collective variables state to "rest.colvars.state".
colvars: Synchronizing (emptying the buffer of) trajectory file "Run2_IC_Rg_175A_Es_3kT_Ens05kT.colvars.traj".
colvars: Saving collective variables state to "rest.colvars.state".
colvars: Synchronizing (emptying the buffer of) trajectory file "Run2_IC_Rg_175A_Es_3kT_Ens05kT.colvars.traj".
colvars: Saving collective variables state to "rest.colvars.state".
colvars: Synchronizing (emptying the buffer of) trajectory file "Run2_IC_Rg_175A_Es_3kT_Ens05kT.colvars.traj".
colvars: Saving collective variables state to "rest.colvars.state".
colvars: Synchronizing (emptying the buffer of) trajectory file "Run2_IC_Rg_175A_Es_3kT_Ens05kT.colvars.traj".
colvars: Saving collective variables state to "rest.colvars.state".
colvars: Synchronizing (emptying the buffer of) trajectory file "Run2_IC_Rg_175A_Es_3kT_Ens05kT.colvars.traj".
colvars: Saving collective variables state to "rest.colvars.state".
colvars: Synchronizing (emptying the buffer of) trajectory file "Run2_IC_Rg_175A_Es_3kT_Ens05kT.colvars.traj".
colvars: Saving collective variables state to "rest.colvars.state".
colvars: Synchronizing (emptying the buffer of) trajectory file "Run2_IC_Rg_175A_Es_3kT_Ens05kT.colvars.traj".
colvars: Saving collective variables state to "rest.colvars.state".
colvars: Synchronizing (emptying the buffer of) trajectory file "Run2_IC_Rg_175A_Es_3kT_Ens05kT.colvars.traj".
colvars: Saving collective variables state to "rest.colvars.state".
colvars: Synchronizing (emptying the buffer of) trajectory file "Run2_IC_Rg_175A_Es_3kT_Ens05kT.colvars.traj".
colvars: Saving collective variables state to "rest.colvars.state".
15000000   -3538.3629    1026.4465    4564.0942    1588.6149    2976.1945    306.29306     5251 
colvars: Synchronizing (emptying the buffer of) trajectory file "Run2_IC_Rg_175A_Es_3kT_Ens05kT.colvars.traj".
colvars: Saving collective variables state to "rest.colvars.state".
colvars: Synchronizing (emptying the buffer of) trajectory file "Run2_IC_Rg_175A_Es_3kT_Ens05kT.colvars.traj".
colvars: Saving collective variables state to "rest.colvars.state".
colvars: Synchronizing (emptying the buffer of) trajectory file "Run2_IC_Rg_175A_Es_3kT_Ens05kT.colvars.traj".
colvars: Saving collective variables state to "rest.colvars.state".
colvars: Synchronizing (emptying the buffer of) trajectory file "Run2_IC_Rg_175A_Es_3kT_Ens05kT.colvars.traj".
colvars: Saving collective variables state to "rest.colvars.state".
colvars: Synchronizing (emptying the buffer of) trajectory file "Run2_IC_Rg_175A_Es_3kT_Ens05kT.colvars.traj".
colvars: Saving collective variables state to "rest.colvars.state".
colvars: Synchronizing (emptying the buffer of) trajectory file "Run2_IC_Rg_175A_Es_3kT_Ens05kT.colvars.traj".
colvars: Saving collective variables state to "rest.colvars.state".
colvars: Synchronizing (emptying the buffer of) trajectory file "Run2_IC_Rg_175A_Es_3kT_Ens05kT.colvars.traj".
colvars: Saving collective variables state to "rest.colvars.state".
colvars: Synchronizing (emptying the buffer of) trajectory file "Run2_IC_Rg_175A_Es_3kT_Ens05kT.colvars.traj".
colvars: Saving collective variables state to "rest.colvars.state".
colvars: Synchronizing (emptying the buffer of) trajectory file "Run2_IC_Rg_175A_Es_3kT_Ens05kT.colvars.traj".
colvars: Saving collective variables state to "rest.colvars.state".
colvars: Synchronizing (emptying the buffer of) trajectory file "Run2_IC_Rg_175A_Es_3kT_Ens05kT.colvars.traj".
colvars: Saving collective variables state to "rest.colvars.state".
colvars: Synchronizing (emptying the buffer of) trajectory file "Run2_IC_Rg_175A_Es_3kT_Ens05kT.colvars.traj".
colvars: Saving collective variables state to "rest.colvars.state".
colvars: Synchronizing (emptying the buffer of) trajectory file "Run2_IC_Rg_175A_Es_3kT_Ens05kT.colvars.traj".
colvars: Saving collective variables state to "rest.colvars.state".
colvars: Synchronizing (emptying the buffer of) trajectory file "Run2_IC_Rg_175A_Es_3kT_Ens05kT.colvars.traj".
colvars: Saving collective variables state to "rest.colvars.state".
colvars: Synchronizing (emptying the buffer of) trajectory file "Run2_IC_Rg_175A_Es_3kT_Ens05kT.colvars.traj".
colvars: Saving collective variables state to "rest.colvars.state".
colvars: Synchronizing (emptying the buffer of) trajectory file "Run2_IC_Rg_175A_Es_3kT_Ens05kT.colvars.traj".
colvars: Saving collective variables state to "rest.colvars.state".
colvars: Synchronizing (emptying the buffer of) trajectory file "Run2_IC_Rg_175A_Es_3kT_Ens05kT.colvars.traj".
colvars: Saving collective variables state to "rest.colvars.state".
colvars: Synchronizing (emptying the buffer of) trajectory file "Run2_IC_Rg_175A_Es_3kT_Ens05kT.colvars.traj".
colvars: Saving collective variables state to "rest.colvars.state".
colvars: Synchronizing (emptying the buffer of) trajectory file "Run2_IC_Rg_175A_Es_3kT_Ens05kT.colvars.traj".
colvars: Saving collective variables state to "rest.colvars.state".
colvars: Synchronizing (emptying the buffer of) trajectory file "Run2_IC_Rg_175A_Es_3kT_Ens05kT.colvars.traj".
colvars: Saving collective variables state to "rest.colvars.state".
colvars: Synchronizing (emptying the buffer of) trajectory file "Run2_IC_Rg_175A_Es_3kT_Ens05kT.colvars.traj".
colvars: Saving collective variables state to "rest.colvars.state".
16000000   -3549.7629    963.47693    4592.2225     1556.045    2957.1948    308.18073     5250 
colvars: Synchronizing (emptying the buffer of) trajectory file "Run2_IC_Rg_175A_Es_3kT_Ens05kT.colvars.traj".
colvars: Saving collective variables state to "rest.colvars.state".
colvars: Synchronizing (emptying the buffer of) trajectory file "Run2_IC_Rg_175A_Es_3kT_Ens05kT.colvars.traj".
colvars: Saving collective variables state to "rest.colvars.state".
colvars: Synchronizing (emptying the buffer of) trajectory file "Run2_IC_Rg_175A_Es_3kT_Ens05kT.colvars.traj".
colvars: Saving collective variables state to "rest.colvars.state".
colvars: Synchronizing (emptying the buffer of) trajectory file "Run2_IC_Rg_175A_Es_3kT_Ens05kT.colvars.traj".
colvars: Saving collective variables state to "rest.colvars.state".
colvars: Synchronizing (emptying the buffer of) trajectory file "Run2_IC_Rg_175A_Es_3kT_Ens05kT.colvars.traj".
colvars: Saving collective variables state to "rest.colvars.state".
colvars: Synchronizing (emptying the buffer of) trajectory file "Run2_IC_Rg_175A_Es_3kT_Ens05kT.colvars.traj".
colvars: Saving collective variables state to "rest.colvars.state".
colvars: Synchronizing (emptying the buffer of) trajectory file "Run2_IC_Rg_175A_Es_3kT_Ens05kT.colvars.traj".
colvars: Saving collective variables state to "rest.colvars.state".
colvars: Synchronizing (emptying the buffer of) trajectory file "Run2_IC_Rg_175A_Es_3kT_Ens05kT.colvars.traj".
colvars: Saving collective variables state to "rest.colvars.state".
colvars: Synchronizing (emptying the buffer of) trajectory file "Run2_IC_Rg_175A_Es_3kT_Ens05kT.colvars.traj".
colvars: Saving collective variables state to "rest.colvars.state".
colvars: Synchronizing (emptying the buffer of) trajectory file "Run2_IC_Rg_175A_Es_3kT_Ens05kT.colvars.traj".
colvars: Saving collective variables state to "rest.colvars.state".
colvars: Synchronizing (emptying the buffer of) trajectory file "Run2_IC_Rg_175A_Es_3kT_Ens05kT.colvars.traj".
colvars: Saving collective variables state to "rest.colvars.state".
colvars: Synchronizing (emptying the buffer of) trajectory file "Run2_IC_Rg_175A_Es_3kT_Ens05kT.colvars.traj".
colvars: Saving collective variables state to "rest.colvars.state".
colvars: Synchronizing (emptying the buffer of) trajectory file "Run2_IC_Rg_175A_Es_3kT_Ens05kT.colvars.traj".
colvars: Saving collective variables state to "rest.colvars.state".
colvars: Synchronizing (emptying the buffer of) trajectory file "Run2_IC_Rg_175A_Es_3kT_Ens05kT.colvars.traj".
colvars: Saving collective variables state to "rest.colvars.state".
colvars: Synchronizing (emptying the buffer of) trajectory file "Run2_IC_Rg_175A_Es_3kT_Ens05kT.colvars.traj".
colvars: Saving collective variables state to "rest.colvars.state".
colvars: Synchronizing (emptying the buffer of) trajectory file "Run2_IC_Rg_175A_Es_3kT_Ens05kT.colvars.traj".
colvars: Saving collective variables state to "rest.colvars.state".
colvars: Synchronizing (emptying the buffer of) trajectory file "Run2_IC_Rg_175A_Es_3kT_Ens05kT.colvars.traj".
colvars: Saving collective variables state to "rest.colvars.state".
colvars: Synchronizing (emptying the buffer of) trajectory file "Run2_IC_Rg_175A_Es_3kT_Ens05kT.colvars.traj".
colvars: Saving collective variables state to "rest.colvars.state".
colvars: Synchronizing (emptying the buffer of) trajectory file "Run2_IC_Rg_175A_Es_3kT_Ens05kT.colvars.traj".
colvars: Saving collective variables state to "rest.colvars.state".
colvars: Synchronizing (emptying the buffer of) trajectory file "Run2_IC_Rg_175A_Es_3kT_Ens05kT.colvars.traj".
colvars: Saving collective variables state to "rest.colvars.state".
17000000    -3687.615     847.0178    4570.8789    1562.1467     2972.486    306.74838     5248 
colvars: Synchronizing (emptying the buffer of) trajectory file "Run2_IC_Rg_175A_Es_3kT_Ens05kT.colvars.traj".
colvars: Saving collective variables state to "rest.colvars.state".
colvars: Synchronizing (emptying the buffer of) trajectory file "Run2_IC_Rg_175A_Es_3kT_Ens05kT.colvars.traj".
colvars: Saving collective variables state to "rest.colvars.state".
colvars: Synchronizing (emptying the buffer of) trajectory file "Run2_IC_Rg_175A_Es_3kT_Ens05kT.colvars.traj".
colvars: Saving collective variables state to "rest.colvars.state".
colvars: Synchronizing (emptying the buffer of) trajectory file "Run2_IC_Rg_175A_Es_3kT_Ens05kT.colvars.traj".
colvars: Saving collective variables state to "rest.colvars.state".
colvars: Synchronizing (emptying the buffer of) trajectory file "Run2_IC_Rg_175A_Es_3kT_Ens05kT.colvars.traj".
colvars: Saving collective variables state to "rest.colvars.state".
colvars: Synchronizing (emptying the buffer of) trajectory file "Run2_IC_Rg_175A_Es_3kT_Ens05kT.colvars.traj".
colvars: Saving collective variables state to "rest.colvars.state".
colvars: Synchronizing (emptying the buffer of) trajectory file "Run2_IC_Rg_175A_Es_3kT_Ens05kT.colvars.traj".
colvars: Saving collective variables state to "rest.colvars.state".
colvars: Synchronizing (emptying the buffer of) trajectory file "Run2_IC_Rg_175A_Es_3kT_Ens05kT.colvars.traj".
colvars: Saving collective variables state to "rest.colvars.state".
colvars: Synchronizing (emptying the buffer of) trajectory file "Run2_IC_Rg_175A_Es_3kT_Ens05kT.colvars.traj".
colvars: Saving collective variables state to "rest.colvars.state".
colvars: Synchronizing (emptying the buffer of) trajectory file "Run2_IC_Rg_175A_Es_3kT_Ens05kT.colvars.traj".
colvars: Saving collective variables state to "rest.colvars.state".
colvars: Synchronizing (emptying the buffer of) trajectory file "Run2_IC_Rg_175A_Es_3kT_Ens05kT.colvars.traj".
colvars: Saving collective variables state to "rest.colvars.state".
colvars: Synchronizing (emptying the buffer of) trajectory file "Run2_IC_Rg_175A_Es_3kT_Ens05kT.colvars.traj".
colvars: Saving collective variables state to "rest.colvars.state".
colvars: Synchronizing (emptying the buffer of) trajectory file "Run2_IC_Rg_175A_Es_3kT_Ens05kT.colvars.traj".
colvars: Saving collective variables state to "rest.colvars.state".
colvars: Synchronizing (emptying the buffer of) trajectory file "Run2_IC_Rg_175A_Es_3kT_Ens05kT.colvars.traj".
colvars: Saving collective variables state to "rest.colvars.state".
colvars: Synchronizing (emptying the buffer of) trajectory file "Run2_IC_Rg_175A_Es_3kT_Ens05kT.colvars.traj".
colvars: Saving collective variables state to "rest.colvars.state".
colvars: Synchronizing (emptying the buffer of) trajectory file "Run2_IC_Rg_175A_Es_3kT_Ens05kT.colvars.traj".
colvars: Saving collective variables state to "rest.colvars.state".
colvars: Synchronizing (emptying the buffer of) trajectory file "Run2_IC_Rg_175A_Es_3kT_Ens05kT.colvars.traj".
colvars: Saving collective variables state to "rest.colvars.state".
colvars: Synchronizing (emptying the buffer of) trajectory file "Run2_IC_Rg_175A_Es_3kT_Ens05kT.colvars.traj".
colvars: Saving collective variables state to "rest.colvars.state".
colvars: Synchronizing (emptying the buffer of) trajectory file "Run2_IC_Rg_175A_Es_3kT_Ens05kT.colvars.traj".
colvars: Saving collective variables state to "rest.colvars.state".
colvars: Synchronizing (emptying the buffer of) trajectory file "Run2_IC_Rg_175A_Es_3kT_Ens05kT.colvars.traj".
colvars: Saving collective variables state to "rest.colvars.state".
18000000   -3815.6614    710.43923    4696.5056    1541.3123    2984.7883     315.1791     5252 
colvars: Synchronizing (emptying the buffer of) trajectory file "Run2_IC_Rg_175A_Es_3kT_Ens05kT.colvars.traj".
colvars: Saving collective variables state to "rest.colvars.state".
colvars: Synchronizing (emptying the buffer of) trajectory file "Run2_IC_Rg_175A_Es_3kT_Ens05kT.colvars.traj".
colvars: Saving collective variables state to "rest.colvars.state".
colvars: Synchronizing (emptying the buffer of) trajectory file "Run2_IC_Rg_175A_Es_3kT_Ens05kT.colvars.traj".
colvars: Saving collective variables state to "rest.colvars.state".
colvars: Synchronizing (emptying the buffer of) trajectory file "Run2_IC_Rg_175A_Es_3kT_Ens05kT.colvars.traj".
colvars: Saving collective variables state to "rest.colvars.state".
[...]
195000000   -3762.0898    633.23789    4687.8424    1551.4664    2843.8613    314.59772     5257 
colvars: Synchronizing (emptying the buffer of) trajectory file "Run2_IC_Rg_175A_Es_3kT_Ens05kT.colvars.traj".
colvars: Saving collective variables state to "rest.colvars.state".
colvars: Synchronizing (emptying the buffer of) trajectory file "Run2_IC_Rg_175A_Es_3kT_Ens05kT.colvars.traj".
colvars: Saving collective variables state to "rest.colvars.state".
colvars: Synchronizing (emptying the buffer of) trajectory file "Run2_IC_Rg_175A_Es_3kT_Ens05kT.colvars.traj".
colvars: Saving collective variables state to "rest.colvars.state".
colvars: Synchronizing (emptying the buffer of) trajectory file "Run2_IC_Rg_175A_Es_3kT_Ens05kT.colvars.traj".
colvars: Saving collective variables state to "rest.colvars.state".
colvars: Synchronizing (emptying the buffer of) trajectory file "Run2_IC_Rg_175A_Es_3kT_Ens05kT.colvars.traj".
colvars: Saving collective variables state to "rest.colvars.state".
colvars: Synchronizing (emptying the buffer of) trajectory file "Run2_IC_Rg_175A_Es_3kT_Ens05kT.colvars.traj".
colvars: Saving collective variables state to "rest.colvars.state".
colvars: Synchronizing (emptying the buffer of) trajectory file "Run2_IC_Rg_175A_Es_3kT_Ens05kT.colvars.traj".
colvars: Saving collective variables state to "rest.colvars.state".
colvars: Synchronizing (emptying the buffer of) trajectory file "Run2_IC_Rg_175A_Es_3kT_Ens05kT.colvars.traj".
colvars: Saving collective variables state to "rest.colvars.state".
colvars: Synchronizing (emptying the buffer of) trajectory file "Run2_IC_Rg_175A_Es_3kT_Ens05kT.colvars.traj".
colvars: Saving collective variables state to "rest.colvars.state".
colvars: Synchronizing (emptying the buffer of) trajectory file "Run2_IC_Rg_175A_Es_3kT_Ens05kT.colvars.traj".
colvars: Saving collective variables state to "rest.colvars.state".
colvars: Synchronizing (emptying the buffer of) trajectory file "Run2_IC_Rg_175A_Es_3kT_Ens05kT.colvars.traj".
colvars: Saving collective variables state to "rest.colvars.state".
colvars: Synchronizing (emptying the buffer of) trajectory file "Run2_IC_Rg_175A_Es_3kT_Ens05kT.colvars.traj".
colvars: Saving collective variables state to "rest.colvars.state".
colvars: Synchronizing (emptying the buffer of) trajectory file "Run2_IC_Rg_175A_Es_3kT_Ens05kT.colvars.traj".
colvars: Saving collective variables state to "rest.colvars.state".
colvars: Synchronizing (emptying the buffer of) trajectory file "Run2_IC_Rg_175A_Es_3kT_Ens05kT.colvars.traj".
colvars: Saving collective variables state to "rest.colvars.state".
colvars: Synchronizing (emptying the buffer of) trajectory file "Run2_IC_Rg_175A_Es_3kT_Ens05kT.colvars.traj".
colvars: Saving collective variables state to "rest.colvars.state".
colvars: Synchronizing (emptying the buffer of) trajectory file "Run2_IC_Rg_175A_Es_3kT_Ens05kT.colvars.traj".
colvars: Saving collective variables state to "rest.colvars.state".
colvars: Synchronizing (emptying the buffer of) trajectory file "Run2_IC_Rg_175A_Es_3kT_Ens05kT.colvars.traj".
colvars: Saving collective variables state to "rest.colvars.state".
colvars: Synchronizing (emptying the buffer of) trajectory file "Run2_IC_Rg_175A_Es_3kT_Ens05kT.colvars.traj".
colvars: Saving collective variables state to "rest.colvars.state".
colvars: Synchronizing (emptying the buffer of) trajectory file "Run2_IC_Rg_175A_Es_3kT_Ens05kT.colvars.traj".
colvars: Saving collective variables state to "rest.colvars.state".
colvars: Synchronizing (emptying the buffer of) trajectory file "Run2_IC_Rg_175A_Es_3kT_Ens05kT.colvars.traj".
colvars: Saving collective variables state to "rest.colvars.state".
196000000    -3703.891    712.51691    4668.5274    1566.2186    2850.1893     313.3015     5257 
colvars: Synchronizing (emptying the buffer of) trajectory file "Run2_IC_Rg_175A_Es_3kT_Ens05kT.colvars.traj".
colvars: Saving collective variables state to "rest.colvars.state".
colvars: Synchronizing (emptying the buffer of) trajectory file "Run2_IC_Rg_175A_Es_3kT_Ens05kT.colvars.traj".
colvars: Saving collective variables state to "rest.colvars.state".
colvars: Synchronizing (emptying the buffer of) trajectory file "Run2_IC_Rg_175A_Es_3kT_Ens05kT.colvars.traj".
colvars: Saving collective variables state to "rest.colvars.state".
colvars: Synchronizing (emptying the buffer of) trajectory file "Run2_IC_Rg_175A_Es_3kT_Ens05kT.colvars.traj".
colvars: Saving collective variables state to "rest.colvars.state".
colvars: Synchronizing (emptying the buffer of) trajectory file "Run2_IC_Rg_175A_Es_3kT_Ens05kT.colvars.traj".
colvars: Saving collective variables state to "rest.colvars.state".
colvars: Synchronizing (emptying the buffer of) trajectory file "Run2_IC_Rg_175A_Es_3kT_Ens05kT.colvars.traj".
colvars: Saving collective variables state to "rest.colvars.state".
colvars: Synchronizing (emptying the buffer of) trajectory file "Run2_IC_Rg_175A_Es_3kT_Ens05kT.colvars.traj".
colvars: Saving collective variables state to "rest.colvars.state".
colvars: Synchronizing (emptying the buffer of) trajectory file "Run2_IC_Rg_175A_Es_3kT_Ens05kT.colvars.traj".
colvars: Saving collective variables state to "rest.colvars.state".
colvars: Synchronizing (emptying the buffer of) trajectory file "Run2_IC_Rg_175A_Es_3kT_Ens05kT.colvars.traj".
colvars: Saving collective variables state to "rest.colvars.state".
colvars: Synchronizing (emptying the buffer of) trajectory file "Run2_IC_Rg_175A_Es_3kT_Ens05kT.colvars.traj".
colvars: Saving collective variables state to "rest.colvars.state".
colvars: Synchronizing (emptying the buffer of) trajectory file "Run2_IC_Rg_175A_Es_3kT_Ens05kT.colvars.traj".
colvars: Saving collective variables state to "rest.colvars.state".
colvars: Synchronizing (emptying the buffer of) trajectory file "Run2_IC_Rg_175A_Es_3kT_Ens05kT.colvars.traj".
colvars: Saving collective variables state to "rest.colvars.state".
colvars: Synchronizing (emptying the buffer of) trajectory file "Run2_IC_Rg_175A_Es_3kT_Ens05kT.colvars.traj".
colvars: Saving collective variables state to "rest.colvars.state".
colvars: Synchronizing (emptying the buffer of) trajectory file "Run2_IC_Rg_175A_Es_3kT_Ens05kT.colvars.traj".
colvars: Saving collective variables state to "rest.colvars.state".
colvars: Synchronizing (emptying the buffer of) trajectory file "Run2_IC_Rg_175A_Es_3kT_Ens05kT.colvars.traj".
colvars: Saving collective variables state to "rest.colvars.state".
colvars: Synchronizing (emptying the buffer of) trajectory file "Run2_IC_Rg_175A_Es_3kT_Ens05kT.colvars.traj".
colvars: Saving collective variables state to "rest.colvars.state".
colvars: Synchronizing (emptying the buffer of) trajectory file "Run2_IC_Rg_175A_Es_3kT_Ens05kT.colvars.traj".
colvars: Saving collective variables state to "rest.colvars.state".
colvars: Synchronizing (emptying the buffer of) trajectory file "Run2_IC_Rg_175A_Es_3kT_Ens05kT.colvars.traj".
colvars: Saving collective variables state to "rest.colvars.state".
colvars: Synchronizing (emptying the buffer of) trajectory file "Run2_IC_Rg_175A_Es_3kT_Ens05kT.colvars.traj".
colvars: Saving collective variables state to "rest.colvars.state".
colvars: Synchronizing (emptying the buffer of) trajectory file "Run2_IC_Rg_175A_Es_3kT_Ens05kT.colvars.traj".
colvars: Saving collective variables state to "rest.colvars.state".
197000000   -3758.3313    699.65971    4577.8822    1579.3911    2878.5999    307.21836     5260 
colvars: Synchronizing (emptying the buffer of) trajectory file "Run2_IC_Rg_175A_Es_3kT_Ens05kT.colvars.traj".
colvars: Saving collective variables state to "rest.colvars.state".
colvars: Synchronizing (emptying the buffer of) trajectory file "Run2_IC_Rg_175A_Es_3kT_Ens05kT.colvars.traj".
colvars: Saving collective variables state to "rest.colvars.state".
colvars: Synchronizing (emptying the buffer of) trajectory file "Run2_IC_Rg_175A_Es_3kT_Ens05kT.colvars.traj".
colvars: Saving collective variables state to "rest.colvars.state".
colvars: Synchronizing (emptying the buffer of) trajectory file "Run2_IC_Rg_175A_Es_3kT_Ens05kT.colvars.traj".
colvars: Saving collective variables state to "rest.colvars.state".
colvars: Synchronizing (emptying the buffer of) trajectory file "Run2_IC_Rg_175A_Es_3kT_Ens05kT.colvars.traj".
colvars: Saving collective variables state to "rest.colvars.state".
colvars: Synchronizing (emptying the buffer of) trajectory file "Run2_IC_Rg_175A_Es_3kT_Ens05kT.colvars.traj".
colvars: Saving collective variables state to "rest.colvars.state".
colvars: Synchronizing (emptying the buffer of) trajectory file "Run2_IC_Rg_175A_Es_3kT_Ens05kT.colvars.traj".
colvars: Saving collective variables state to "rest.colvars.state".
colvars: Synchronizing (emptying the buffer of) trajectory file "Run2_IC_Rg_175A_Es_3kT_Ens05kT.colvars.traj".
colvars: Saving collective variables state to "rest.colvars.state".
colvars: Synchronizing (emptying the buffer of) trajectory file "Run2_IC_Rg_175A_Es_3kT_Ens05kT.colvars.traj".
colvars: Saving collective variables state to "rest.colvars.state".
colvars: Synchronizing (emptying the buffer of) trajectory file "Run2_IC_Rg_175A_Es_3kT_Ens05kT.colvars.traj".
colvars: Saving collective variables state to "rest.colvars.state".
colvars: Synchronizing (emptying the buffer of) trajectory file "Run2_IC_Rg_175A_Es_3kT_Ens05kT.colvars.traj".
colvars: Saving collective variables state to "rest.colvars.state".
colvars: Synchronizing (emptying the buffer of) trajectory file "Run2_IC_Rg_175A_Es_3kT_Ens05kT.colvars.traj".
colvars: Saving collective variables state to "rest.colvars.state".
colvars: Synchronizing (emptying the buffer of) trajectory file "Run2_IC_Rg_175A_Es_3kT_Ens05kT.colvars.traj".
colvars: Saving collective variables state to "rest.colvars.state".
colvars: Synchronizing (emptying the buffer of) trajectory file "Run2_IC_Rg_175A_Es_3kT_Ens05kT.colvars.traj".
colvars: Saving collective variables state to "rest.colvars.state".
colvars: Synchronizing (emptying the buffer of) trajectory file "Run2_IC_Rg_175A_Es_3kT_Ens05kT.colvars.traj".
colvars: Saving collective variables state to "rest.colvars.state".
colvars: Synchronizing (emptying the buffer of) trajectory file "Run2_IC_Rg_175A_Es_3kT_Ens05kT.colvars.traj".
colvars: Saving collective variables state to "rest.colvars.state".
colvars: Synchronizing (emptying the buffer of) trajectory file "Run2_IC_Rg_175A_Es_3kT_Ens05kT.colvars.traj".
colvars: Saving collective variables state to "rest.colvars.state".
colvars: Synchronizing (emptying the buffer of) trajectory file "Run2_IC_Rg_175A_Es_3kT_Ens05kT.colvars.traj".
colvars: Saving collective variables state to "rest.colvars.state".
colvars: Synchronizing (emptying the buffer of) trajectory file "Run2_IC_Rg_175A_Es_3kT_Ens05kT.colvars.traj".
colvars: Saving collective variables state to "rest.colvars.state".
colvars: Synchronizing (emptying the buffer of) trajectory file "Run2_IC_Rg_175A_Es_3kT_Ens05kT.colvars.traj".
colvars: Saving collective variables state to "rest.colvars.state".
198000000   -3768.3885    666.49194    4610.1118    1561.2616    2873.6189    309.38127     5255 
colvars: Synchronizing (emptying the buffer of) trajectory file "Run2_IC_Rg_175A_Es_3kT_Ens05kT.colvars.traj".
colvars: Saving collective variables state to "rest.colvars.state".
colvars: Synchronizing (emptying the buffer of) trajectory file "Run2_IC_Rg_175A_Es_3kT_Ens05kT.colvars.traj".
colvars: Saving collective variables state to "rest.colvars.state".
colvars: Synchronizing (emptying the buffer of) trajectory file "Run2_IC_Rg_175A_Es_3kT_Ens05kT.colvars.traj".
colvars: Saving collective variables state to "rest.colvars.state".
colvars: Synchronizing (emptying the buffer of) trajectory file "Run2_IC_Rg_175A_Es_3kT_Ens05kT.colvars.traj".
colvars: Saving collective variables state to "rest.colvars.state".
colvars: Synchronizing (emptying the buffer of) trajectory file "Run2_IC_Rg_175A_Es_3kT_Ens05kT.colvars.traj".
colvars: Saving collective variables state to "rest.colvars.state".
colvars: Synchronizing (emptying the buffer of) trajectory file "Run2_IC_Rg_175A_Es_3kT_Ens05kT.colvars.traj".
colvars: Saving collective variables state to "rest.colvars.state".
colvars: Synchronizing (emptying the buffer of) trajectory file "Run2_IC_Rg_175A_Es_3kT_Ens05kT.colvars.traj".
colvars: Saving collective variables state to "rest.colvars.state".
colvars: Synchronizing (emptying the buffer of) trajectory file "Run2_IC_Rg_175A_Es_3kT_Ens05kT.colvars.traj".
colvars: Saving collective variables state to "rest.colvars.state".
colvars: Synchronizing (emptying the buffer of) trajectory file "Run2_IC_Rg_175A_Es_3kT_Ens05kT.colvars.traj".
colvars: Saving collective variables state to "rest.colvars.state".
colvars: Synchronizing (emptying the buffer of) trajectory file "Run2_IC_Rg_175A_Es_3kT_Ens05kT.colvars.traj".
colvars: Saving collective variables state to "rest.colvars.state".
colvars: Synchronizing (emptying the buffer of) trajectory file "Run2_IC_Rg_175A_Es_3kT_Ens05kT.colvars.traj".
colvars: Saving collective variables state to "rest.colvars.state".
colvars: Synchronizing (emptying the buffer of) trajectory file "Run2_IC_Rg_175A_Es_3kT_Ens05kT.colvars.traj".
colvars: Saving collective variables state to "rest.colvars.state".
colvars: Synchronizing (emptying the buffer of) trajectory file "Run2_IC_Rg_175A_Es_3kT_Ens05kT.colvars.traj".
colvars: Saving collective variables state to "rest.colvars.state".
colvars: Synchronizing (emptying the buffer of) trajectory file "Run2_IC_Rg_175A_Es_3kT_Ens05kT.colvars.traj".
colvars: Saving collective variables state to "rest.colvars.state".
colvars: Synchronizing (emptying the buffer of) trajectory file "Run2_IC_Rg_175A_Es_3kT_Ens05kT.colvars.traj".
colvars: Saving collective variables state to "rest.colvars.state".
colvars: Synchronizing (emptying the buffer of) trajectory file "Run2_IC_Rg_175A_Es_3kT_Ens05kT.colvars.traj".
colvars: Saving collective variables state to "rest.colvars.state".
colvars: Synchronizing (emptying the buffer of) trajectory file "Run2_IC_Rg_175A_Es_3kT_Ens05kT.colvars.traj".
colvars: Saving collective variables state to "rest.colvars.state".
colvars: Synchronizing (emptying the buffer of) trajectory file "Run2_IC_Rg_175A_Es_3kT_Ens05kT.colvars.traj".
colvars: Saving collective variables state to "rest.colvars.state".
colvars: Synchronizing (emptying the buffer of) trajectory file "Run2_IC_Rg_175A_Es_3kT_Ens05kT.colvars.traj".
colvars: Saving collective variables state to "rest.colvars.state".
colvars: Synchronizing (emptying the buffer of) trajectory file "Run2_IC_Rg_175A_Es_3kT_Ens05kT.colvars.traj".
colvars: Saving collective variables state to "rest.colvars.state".
199000000   -3729.1489    664.46339    4567.1018    1580.4192    2813.1931     306.4949     5244 
colvars: Synchronizing (emptying the buffer of) trajectory file "Run2_IC_Rg_175A_Es_3kT_Ens05kT.colvars.traj".
colvars: Saving collective variables state to "rest.colvars.state".
colvars: Synchronizing (emptying the buffer of) trajectory file "Run2_IC_Rg_175A_Es_3kT_Ens05kT.colvars.traj".
colvars: Saving collective variables state to "rest.colvars.state".
colvars: Synchronizing (emptying the buffer of) trajectory file "Run2_IC_Rg_175A_Es_3kT_Ens05kT.colvars.traj".
colvars: Saving collective variables state to "rest.colvars.state".
colvars: Synchronizing (emptying the buffer of) trajectory file "Run2_IC_Rg_175A_Es_3kT_Ens05kT.colvars.traj".
colvars: Saving collective variables state to "rest.colvars.state".
colvars: Synchronizing (emptying the buffer of) trajectory file "Run2_IC_Rg_175A_Es_3kT_Ens05kT.colvars.traj".
colvars: Saving collective variables state to "rest.colvars.state".
colvars: Synchronizing (emptying the buffer of) trajectory file "Run2_IC_Rg_175A_Es_3kT_Ens05kT.colvars.traj".
colvars: Saving collective variables state to "rest.colvars.state".
colvars: Synchronizing (emptying the buffer of) trajectory file "Run2_IC_Rg_175A_Es_3kT_Ens05kT.colvars.traj".
colvars: Saving collective variables state to "rest.colvars.state".
colvars: Synchronizing (emptying the buffer of) trajectory file "Run2_IC_Rg_175A_Es_3kT_Ens05kT.colvars.traj".
colvars: Saving collective variables state to "rest.colvars.state".
colvars: Synchronizing (emptying the buffer of) trajectory file "Run2_IC_Rg_175A_Es_3kT_Ens05kT.colvars.traj".
colvars: Saving collective variables state to "rest.colvars.state".
colvars: Synchronizing (emptying the buffer of) trajectory file "Run2_IC_Rg_175A_Es_3kT_Ens05kT.colvars.traj".
colvars: Saving collective variables state to "rest.colvars.state".
colvars: Synchronizing (emptying the buffer of) trajectory file "Run2_IC_Rg_175A_Es_3kT_Ens05kT.colvars.traj".
colvars: Saving collective variables state to "rest.colvars.state".
colvars: Synchronizing (emptying the buffer of) trajectory file "Run2_IC_Rg_175A_Es_3kT_Ens05kT.colvars.traj".
colvars: Saving collective variables state to "rest.colvars.state".
colvars: Synchronizing (emptying the buffer of) trajectory file "Run2_IC_Rg_175A_Es_3kT_Ens05kT.colvars.traj".
colvars: Saving collective variables state to "rest.colvars.state".
colvars: Synchronizing (emptying the buffer of) trajectory file "Run2_IC_Rg_175A_Es_3kT_Ens05kT.colvars.traj".
colvars: Saving collective variables state to "rest.colvars.state".
colvars: Synchronizing (emptying the buffer of) trajectory file "Run2_IC_Rg_175A_Es_3kT_Ens05kT.colvars.traj".
colvars: Saving collective variables state to "rest.colvars.state".
colvars: Synchronizing (emptying the buffer of) trajectory file "Run2_IC_Rg_175A_Es_3kT_Ens05kT.colvars.traj".
colvars: Saving collective variables state to "rest.colvars.state".
colvars: Synchronizing (emptying the buffer of) trajectory file "Run2_IC_Rg_175A_Es_3kT_Ens05kT.colvars.traj".
colvars: Saving collective variables state to "rest.colvars.state".
colvars: Synchronizing (emptying the buffer of) trajectory file "Run2_IC_Rg_175A_Es_3kT_Ens05kT.colvars.traj".
colvars: Saving collective variables state to "rest.colvars.state".
colvars: Synchronizing (emptying the buffer of) trajectory file "Run2_IC_Rg_175A_Es_3kT_Ens05kT.colvars.traj".
colvars: Saving collective variables state to "rest.colvars.state".
colvars: Synchronizing (emptying the buffer of) trajectory file "Run2_IC_Rg_175A_Es_3kT_Ens05kT.colvars.traj".
colvars: Saving collective variables state to "rest.colvars.state".
200000000   -3764.1596    673.53439    4680.3411    1576.1101    2861.5839    314.09431     5264 
colvars: Saving collective variables state to "Run2_IC_Rg_175A_Es_3kT_Ens05kT.colvars.state".
Loop time of 67946.5 on 8 procs for 200000000 steps with 5000 atoms

Performance: 6357.948 ns/day, 0.004 hours/ns, 2943.494 timesteps/s
99.7% CPU use with 8 MPI tasks x no OpenMP threads

MPI task timing breakdown:
Section |  min time  |  avg time  |  max time  |%varavg| %total
---------------------------------------------------------------
Pair    | 23073      | 25361      | 27721      | 874.4 | 37.32
Bond    | 3945.3     | 3968.3     | 4031.6     |  40.0 |  5.84
Neigh   | 8774.1     | 8810.4     | 8845.6     |  27.3 | 12.97
Comm    | 9005.8     | 12085      | 15402      |1717.4 | 17.79
Output  | 1.1469     | 1.147      | 1.1472     |   0.0 |  0.00
Modify  | 15686      | 15938      | 16266      | 121.7 | 23.46
Other   |            | 1782       |            |       |  2.62

Nlocal:    625 ave 644 max 598 min
Histogram: 1 0 0 1 0 2 1 0 2 1
Nghost:    761.125 ave 817 max 703 min
Histogram: 1 1 0 2 1 0 0 1 0 2
Neighs:    12399.6 ave 13577 max 10650 min
Histogram: 1 0 1 0 1 1 0 1 1 2

Total # of neighbors = 99197
Ave neighs/atom = 19.8394
Ave special neighs/atom = 7.3692
Neighbor list builds = 10488763
Dangerous builds = 0
write_restart final_state_${fName}.restart
write_restart final_state_Run2_IC_Rg_175A_Es_3kT_Ens05kT.restart
colvars: Resetting the Collective Variables module.

Please see the log.cite file for references relevant to this simulation

Total wall time: 18:52:29
