
units           real
boundary p p p
atom_style      full

neighbor 1.9 bin
neigh_modify every 1 delay 1 check yes

read_data IC_N200_Rg_175A.data extra/special/per/atom 10
  orthogonal box = (-250 -250 -250) to (250 250 250)
  2 by 2 by 2 MPI processor grid
  reading atoms ...
  5000 atoms
  scanning bonds ...
  11 = max bonds/atom
  scanning angles ...
  1 = max angles/atom
  reading bonds ...
  4800 bonds
  reading angles ...
  4600 angles
  2 = max # of 1-2 neighbors
  2 = max # of 1-3 neighbors
  4 = max # of 1-4 neighbors
  16 = max # of special neighbors
  special bonds CPU = 0.031281 secs
  read_data CPU = 0.0868424 secs

angle_style  cosine
angle_coeff   *  2  # K (energy unit)

bond_style      harmonic
# bond-type, K (energy/distance^2), R0 (distance)
bond_coeff   1   3   10
bond_coeff   2   3   10
bond_coeff   3   1.8   11.22

pair_style lj/cut 25
# atom-typ1, atom-typ2, energy-well, sigma (bead-diameter), cut-off (distance)
pair_coeff  * * 0.3 10 25

special_bonds lj  1 1 1 angle no
  2 = max # of 1-2 neighbors
  2 = max # of 1-3 neighbors
  4 = max # of 1-4 neighbors
  16 = max # of special neighbors
  special bonds CPU = 0.000354104 secs

minimize 1.0e-4 1.0e-6 20000 20000 # force_tol, energy_tol, maxiter, maxeval
WARNING: Using 'neigh_modify every 1 delay 0 check yes' setting during minimization (../min.cpp:168)
Neighbor list info ...
  update every 1 steps, delay 0 steps, check yes
  max neighbors/atom: 2000, page size: 100000
  master list distance cutoff = 26.9
  ghost atom cutoff = 26.9
  binsize = 13.45, bins = 38 38 38
  1 neighbor lists, perpetual/occasional/extra = 1 0 0
  (1) pair lj/cut, perpetual
      attributes: half, newton on
      pair build: half/bin/newton
      stencil: half/bin/3d/newton
      bin: standard
Per MPI rank memory allocation (min/avg/max) = 9.435 | 9.491 | 9.812 Mbytes
Step Temp E_pair E_mol TotEng Press 
       0            0     23223661       360000     23583661    51500.021 
    2716            0   -3008.2836    1917.3655   -1090.9181  -0.21495914 
Loop time of 0.880329 on 8 procs for 2716 steps with 5000 atoms

99.7% CPU use with 8 MPI tasks x no OpenMP threads

Minimization stats:
  Stopping criterion = energy tolerance
  Energy initial, next-to-last, final = 
         23583660.6342     -1090.81202443     -1090.91805571
  Force two-norm initial, final = 234700 1.18135
  Force max component initial, final = 11733 0.255402
  Final line search alpha, max atom move = 0.247917 0.0633185
  Iterations, force evaluations = 2716 3368

MPI task timing breakdown:
Section |  min time  |  avg time  |  max time  |%varavg| %total
---------------------------------------------------------------
Pair    | 0.20637    | 0.28581    | 0.40475    |  10.9 | 32.47
Bond    | 0.067431   | 0.079704   | 0.096884   |   3.0 |  9.05
Neigh   | 0.094822   | 0.097464   | 0.099973   |   0.5 | 11.07
Comm    | 0.1579     | 0.27751    | 0.36078    |  11.7 | 31.52
Output  | 0          | 0          | 0          |   0.0 |  0.00
Modify  | 0          | 0          | 0          |   0.0 |  0.00
Other   |            | 0.1398     |            |       | 15.88

Nlocal:    625 ave 773 max 535 min
Histogram: 2 0 1 2 1 1 0 0 0 1
Nghost:    362.75 ave 447 max 318 min
Histogram: 3 2 0 0 0 0 1 1 0 1
Neighs:    5198.25 ave 7858 max 3700 min
Histogram: 1 2 1 2 0 1 0 0 0 1

Total # of neighbors = 41586
Ave neighs/atom = 8.3172
Ave special neighs/atom = 5.52
Neighbor list builds = 201
Dangerous builds = 0

# further equilibriate the system before bond formation takes place
fix fxlan all langevin $T $T 500 ${seed}
fix fxlan all langevin 310 $T 500 ${seed}
fix fxlan all langevin 310 310 500 ${seed}
fix fxlan all langevin 310 310 500 644734
fix fxnve all nve
timestep 1
run 10000
Per MPI rank memory allocation (min/avg/max) = 8.318 | 8.368 | 8.687 Mbytes
Step Temp E_pair E_mol TotEng Press 
    2716            0   -3008.2836    1917.3655   -1090.9181  -0.21495914 
   12716    309.03859   -2355.0861    3959.2384    6209.1578   -2.4601254 
Loop time of 1.88419 on 8 procs for 10000 steps with 5000 atoms

Performance: 458.553 ns/day, 0.052 hours/ns, 5307.331 timesteps/s
99.6% CPU use with 8 MPI tasks x no OpenMP threads

MPI task timing breakdown:
Section |  min time  |  avg time  |  max time  |%varavg| %total
---------------------------------------------------------------
Pair    | 0.3771     | 0.53317    | 0.81324    |  17.5 | 28.30
Bond    | 0.16284    | 0.1908     | 0.23694    |   4.9 | 10.13
Neigh   | 0.010434   | 0.010717   | 0.010984   |   0.2 |  0.57
Comm    | 0.41659    | 0.68873    | 0.85048    |  15.9 | 36.55
Output  | 5.8745e-05 | 6.9759e-05 | 7.5213e-05 |   0.0 |  0.00
Modify  | 0.24959    | 0.29373    | 0.36095    |   6.3 | 15.59
Other   |            | 0.167      |            |       |  8.86

Nlocal:    625 ave 777 max 533 min
Histogram: 2 0 1 2 1 1 0 0 0 1
Nghost:    360.375 ave 446 max 315 min
Histogram: 3 1 1 0 0 0 1 1 0 1
Neighs:    5132.5 ave 7851 max 3649 min
Histogram: 1 2 1 2 0 1 0 0 0 1

Total # of neighbors = 41060
Ave neighs/atom = 8.212
Ave special neighs/atom = 5.52
Neighbor list builds = 20
Dangerous builds = 0

unfix fxlan
unfix fxnve
reset_timestep 0

variable t equal step
variable steps equal 200000000
variable dt_thermo equal 1000000
variable dt_movie equal 1000000

group rxnSites type 1 3
1000 atoms in group rxnSites

fix Colvars all colvars N200_Rg_IC_175A.colvars output ${fName}
fix Colvars all colvars N200_Rg_IC_175A.colvars output Run4_IC_Rg_175A_Es_3kT_Ens05kT

# fix ID group-ID(atom-types) bond/create Nevery itype jtype Rmin bondtype (prob values = fraction seed) (iparam maxbond newType)
fix bondc rxnSites bond/create/random 20 1 3 12.72 3 prob 1 ${seed} iparam 1 1 jparam 1 3
fix bondc rxnSites bond/create/random 20 1 3 12.72 3 prob 1 644734 iparam 1 1 jparam 1 3

# fix ID group-ID bond/break Nevery bondtype Rmax keyword values ...
fix bondbr rxnSites bond/break 20 3 12.72 prob 1 ${seed}
fix bondbr rxnSites bond/break 20 3 12.72 prob 1 644734

variable frmbnd equal f_bondc[2]
variable brkbnd equal f_bondbr[2]
fix saveBond all print ${dt_thermo} "$t ${frmbnd} ${brkbnd}" file BondData_${fName}.dat screen no
fix saveBond all print 1000000 "$t ${frmbnd} ${brkbnd}" file BondData_${fName}.dat screen no
fix saveBond all print 1000000 "$t ${frmbnd} ${brkbnd}" file BondData_Run4_IC_Rg_175A_Es_3kT_Ens05kT.dat screen no

thermo_style    custom step epair pe ke ebond eangle temp bonds
thermo          ${dt_thermo}
thermo          1000000
fix saveThermo all print ${dt_thermo} "$t $(temp) $(ke) $(pe) $(epair) $(ebond) $(eangle) $(bonds)" file Thermo_${fName}.dat title "# Steps Temp KinEng PotEng Epair Ebond Eangle Bonds" screen no
fix saveThermo all print 1000000 "$t $(temp) $(ke) $(pe) $(epair) $(ebond) $(eangle) $(bonds)" file Thermo_${fName}.dat title "# Steps Temp KinEng PotEng Epair Ebond Eangle Bonds" screen no
fix saveThermo all print 1000000 "$t $(temp) $(ke) $(pe) $(epair) $(ebond) $(eangle) $(bonds)" file Thermo_Run4_IC_Rg_175A_Es_3kT_Ens05kT.dat title "# Steps Temp KinEng PotEng Epair Ebond Eangle Bonds" screen no

############################ Langevin Dynamics ###############################
fix fxlan all langevin $T $T 500 ${seed}
fix fxlan all langevin 310 $T 500 ${seed}
fix fxlan all langevin 310 310 500 ${seed}
fix fxlan all langevin 310 310 500 644734
fix fxnve all nve

comm_style tiled
fix fxbal all balance 1000 1.05 rcb # load balance for spatially heterogeneous system

timestep 25

dump coor all custom ${dt_movie} traj_${fName}.dump id type mol mass x y z xu yu zu
dump coor all custom 1000000 traj_${fName}.dump id type mol mass x y z xu yu zu
dump coor all custom 1000000 traj_Run4_IC_Rg_175A_Es_3kT_Ens05kT.dump id type mol mass x y z xu yu zu

run ${steps}
run 200000000
Neighbor list info ...
  update every 1 steps, delay 1 steps, check yes
  max neighbors/atom: 2000, page size: 100000
  master list distance cutoff = 26.9
  ghost atom cutoff = 26.9
  binsize = 13.45, bins = 38 38 38
  2 neighbor lists, perpetual/occasional/extra = 1 1 0
  (1) pair lj/cut, perpetual
      attributes: half, newton on
      pair build: half/bin/newton
      stencil: half/bin/3d/newton
      bin: standard
  (2) fix bond/create/random, occasional, copy from (1)
      attributes: half, newton on
      pair build: copy
      stencil: none
      bin: none
colvars: Creating proxy instance
colvars: ----------------------------------------------------------------------
colvars: Initializing the collective variables module, version "2019-04-26".
colvars: Please cite Fiorin et al, Mol Phys 2013:
colvars:  http://dx.doi.org/10.1080/00268976.2013.813594
colvars: in any publication based on this calculation.
colvars: Using LAMMPS interface, version "2019-04-09".
colvars: ----------------------------------------------------------------------
colvars: Reading new configuration from file "N200_Rg_IC_175A.colvars":
colvars: # smp = on [default]
colvars: # colvarsTrajFrequency = 50000
colvars: # colvarsRestartFrequency = 50000
colvars: # scriptedColvarForces = off [default]
colvars: # scriptingAfterBiases = off [default]
colvars: ----------------------------------------------------------------------
colvars:   Initializing a new collective variable.
colvars:   # name = "Rg1"
colvars:   Initializing a new "gyration" component.
colvars:     # name = "" [default]
colvars:     # componentCoeff = 1 [default]
colvars:     # componentExp = 1 [default]
colvars:     # period = 0 [default]
colvars:     # wrapAround = 0 [default]
colvars:     # forceNoPBC = off [default]
colvars:     # scalable = on [default]
colvars:       Initializing atom group "atoms".
colvars:       # name = "" [default]
colvars:       # centerReference = off [default]
colvars:       # rotateReference = off [default]
colvars:       # atomsOfGroup = "" [default]
colvars:       # indexGroup = "" [default]
colvars:       # psfSegID =  [default]
colvars:       # atomsFile = "" [default]
colvars:       # dummyAtom = ( 0 , 0 , 0 ) [default]
colvars:       # enableForces = on [default]
colvars:       # enableFitGradients = on [default]
colvars:       # printAtomIDs = off [default]
colvars:       Atom group "atoms" defined with 200 atoms requested.
colvars:   All components initialized.
colvars:   # timeStepFactor = 1 [default]
colvars:   # width = 1 [default]
colvars:   # lowerBoundary = 0
colvars:   # upperBoundary = 200
colvars:   # hardLowerBoundary = off [default]
colvars:   # hardUpperBoundary = on
colvars:   # expandBoundaries = off [default]
colvars:   # extendedLagrangian = off [default]
colvars:   # outputValue = on [default]
colvars:   # outputVelocity = off [default]
colvars:   # outputTotalForce = off [default]
colvars:   # outputAppliedForce = off [default]
colvars:   # subtractAppliedForce = off [default]
colvars:   # runAve = off [default]
colvars:   # corrFunc = off [default]
colvars: ----------------------------------------------------------------------
colvars: Collective variables initialized, 1 in total.
colvars: ----------------------------------------------------------------------
colvars:   Initializing a new "metadynamics" instance.
colvars:   # name = "meta-radgy"
colvars:   # colvars = { Rg1 }
colvars:   # outputEnergy = off [default]
colvars:   # timeStepFactor = 1 [default]
colvars:   # writeTISamples = off [default]
colvars:   # writeTIPMF = off [default]
colvars:   # hillWeight = 0.2
colvars:   # newHillFrequency = 500
colvars:   # hillWidth = 1
colvars:   Half-widths of the Gaussian hills (sigma's):
colvars:   Rg1: 0.5
colvars:   # multipleReplicas = off [default]
colvars:   # useGrids = on [default]
colvars:   # gridsUpdateFrequency = 500 [default]
colvars:   # rebinGrids = off [default]
colvars:   # keepHills = off [default]
colvars:   # writeFreeEnergyFile = on [default]
colvars:   # keepFreeEnergyFiles = off [default]
colvars:   # writeHillsTrajectory = on
colvars:   # wellTempered = on
colvars:   # biasTemperature = 310
colvars:   Well-tempered metadynamics is used.
colvars:   The bias temperature is 310.
colvars:   # ebMeta = off [default]
colvars: ----------------------------------------------------------------------
colvars: Collective variables biases initialized, 1 in total.
colvars: ----------------------------------------------------------------------
colvars: Collective variables module (re)initialized.
colvars: ----------------------------------------------------------------------
colvars: The restart output state file will be "rest.colvars.state".
colvars: The final output state file will be "Run4_IC_Rg_175A_Es_3kT_Ens05kT.colvars.state".
colvars: Writing to colvar trajectory file "Run4_IC_Rg_175A_Es_3kT_Ens05kT.colvars.traj".
colvars: Re-initialized atom group for variable "Rg1":0/0. 200 atoms: total mass = 200000, total charge = 0.
Per MPI rank memory allocation (min/avg/max) = 10.35 | 10.51 | 11.05 Mbytes
Step E_pair PotEng KinEng E_bond E_angle Temp Bonds 
       0   -2355.0861    1604.1523    4605.0055    1729.2725    2229.9659    309.03859     4800 
colvars: Synchronizing (emptying the buffer of) trajectory file "Run4_IC_Rg_175A_Es_3kT_Ens05kT.colvars.traj".
colvars: Saving collective variables state to "rest.colvars.state".
colvars: Synchronizing (emptying the buffer of) trajectory file "Run4_IC_Rg_175A_Es_3kT_Ens05kT.colvars.traj".
colvars: Saving collective variables state to "rest.colvars.state".
colvars: Synchronizing (emptying the buffer of) trajectory file "Run4_IC_Rg_175A_Es_3kT_Ens05kT.colvars.traj".
colvars: Saving collective variables state to "rest.colvars.state".
colvars: Synchronizing (emptying the buffer of) trajectory file "Run4_IC_Rg_175A_Es_3kT_Ens05kT.colvars.traj".
colvars: Saving collective variables state to "rest.colvars.state".
colvars: Synchronizing (emptying the buffer of) trajectory file "Run4_IC_Rg_175A_Es_3kT_Ens05kT.colvars.traj".
colvars: Saving collective variables state to "rest.colvars.state".
colvars: Synchronizing (emptying the buffer of) trajectory file "Run4_IC_Rg_175A_Es_3kT_Ens05kT.colvars.traj".
colvars: Saving collective variables state to "rest.colvars.state".
colvars: Synchronizing (emptying the buffer of) trajectory file "Run4_IC_Rg_175A_Es_3kT_Ens05kT.colvars.traj".
colvars: Saving collective variables state to "rest.colvars.state".
colvars: Synchronizing (emptying the buffer of) trajectory file "Run4_IC_Rg_175A_Es_3kT_Ens05kT.colvars.traj".
colvars: Saving collective variables state to "rest.colvars.state".
colvars: Synchronizing (emptying the buffer of) trajectory file "Run4_IC_Rg_175A_Es_3kT_Ens05kT.colvars.traj".
colvars: Saving collective variables state to "rest.colvars.state".
colvars: Synchronizing (emptying the buffer of) trajectory file "Run4_IC_Rg_175A_Es_3kT_Ens05kT.colvars.traj".
colvars: Saving collective variables state to "rest.colvars.state".
colvars: Synchronizing (emptying the buffer of) trajectory file "Run4_IC_Rg_175A_Es_3kT_Ens05kT.colvars.traj".
colvars: Saving collective variables state to "rest.colvars.state".
colvars: Synchronizing (emptying the buffer of) trajectory file "Run4_IC_Rg_175A_Es_3kT_Ens05kT.colvars.traj".
colvars: Saving collective variables state to "rest.colvars.state".
colvars: Synchronizing (emptying the buffer of) trajectory file "Run4_IC_Rg_175A_Es_3kT_Ens05kT.colvars.traj".
colvars: Saving collective variables state to "rest.colvars.state".
colvars: Synchronizing (emptying the buffer of) trajectory file "Run4_IC_Rg_175A_Es_3kT_Ens05kT.colvars.traj".
colvars: Saving collective variables state to "rest.colvars.state".
colvars: Synchronizing (emptying the buffer of) trajectory file "Run4_IC_Rg_175A_Es_3kT_Ens05kT.colvars.traj".
colvars: Saving collective variables state to "rest.colvars.state".
colvars: Synchronizing (emptying the buffer of) trajectory file "Run4_IC_Rg_175A_Es_3kT_Ens05kT.colvars.traj".
colvars: Saving collective variables state to "rest.colvars.state".
colvars: Synchronizing (emptying the buffer of) trajectory file "Run4_IC_Rg_175A_Es_3kT_Ens05kT.colvars.traj".
colvars: Saving collective variables state to "rest.colvars.state".
colvars: Synchronizing (emptying the buffer of) trajectory file "Run4_IC_Rg_175A_Es_3kT_Ens05kT.colvars.traj".
colvars: Saving collective variables state to "rest.colvars.state".
colvars: Synchronizing (emptying the buffer of) trajectory file "Run4_IC_Rg_175A_Es_3kT_Ens05kT.colvars.traj".
colvars: Saving collective variables state to "rest.colvars.state".
colvars: Synchronizing (emptying the buffer of) trajectory file "Run4_IC_Rg_175A_Es_3kT_Ens05kT.colvars.traj".
colvars: Saving collective variables state to "rest.colvars.state".
 1000000   -1666.7203    2669.5903    4639.4686     1514.505    2821.8057    311.35139     5122 
colvars: Synchronizing (emptying the buffer of) trajectory file "Run4_IC_Rg_175A_Es_3kT_Ens05kT.colvars.traj".
colvars: Saving collective variables state to "rest.colvars.state".
colvars: Synchronizing (emptying the buffer of) trajectory file "Run4_IC_Rg_175A_Es_3kT_Ens05kT.colvars.traj".
colvars: Saving collective variables state to "rest.colvars.state".
colvars: Synchronizing (emptying the buffer of) trajectory file "Run4_IC_Rg_175A_Es_3kT_Ens05kT.colvars.traj".
colvars: Saving collective variables state to "rest.colvars.state".
colvars: Synchronizing (emptying the buffer of) trajectory file "Run4_IC_Rg_175A_Es_3kT_Ens05kT.colvars.traj".
colvars: Saving collective variables state to "rest.colvars.state".
colvars: Synchronizing (emptying the buffer of) trajectory file "Run4_IC_Rg_175A_Es_3kT_Ens05kT.colvars.traj".
colvars: Saving collective variables state to "rest.colvars.state".
colvars: Synchronizing (emptying the buffer of) trajectory file "Run4_IC_Rg_175A_Es_3kT_Ens05kT.colvars.traj".
colvars: Saving collective variables state to "rest.colvars.state".
colvars: Synchronizing (emptying the buffer of) trajectory file "Run4_IC_Rg_175A_Es_3kT_Ens05kT.colvars.traj".
colvars: Saving collective variables state to "rest.colvars.state".
colvars: Synchronizing (emptying the buffer of) trajectory file "Run4_IC_Rg_175A_Es_3kT_Ens05kT.colvars.traj".
colvars: Saving collective variables state to "rest.colvars.state".
colvars: Synchronizing (emptying the buffer of) trajectory file "Run4_IC_Rg_175A_Es_3kT_Ens05kT.colvars.traj".
colvars: Saving collective variables state to "rest.colvars.state".
colvars: Synchronizing (emptying the buffer of) trajectory file "Run4_IC_Rg_175A_Es_3kT_Ens05kT.colvars.traj".
colvars: Saving collective variables state to "rest.colvars.state".
colvars: Synchronizing (emptying the buffer of) trajectory file "Run4_IC_Rg_175A_Es_3kT_Ens05kT.colvars.traj".
colvars: Saving collective variables state to "rest.colvars.state".
colvars: Synchronizing (emptying the buffer of) trajectory file "Run4_IC_Rg_175A_Es_3kT_Ens05kT.colvars.traj".
colvars: Saving collective variables state to "rest.colvars.state".
colvars: Synchronizing (emptying the buffer of) trajectory file "Run4_IC_Rg_175A_Es_3kT_Ens05kT.colvars.traj".
colvars: Saving collective variables state to "rest.colvars.state".
colvars: Synchronizing (emptying the buffer of) trajectory file "Run4_IC_Rg_175A_Es_3kT_Ens05kT.colvars.traj".
colvars: Saving collective variables state to "rest.colvars.state".
colvars: Synchronizing (emptying the buffer of) trajectory file "Run4_IC_Rg_175A_Es_3kT_Ens05kT.colvars.traj".
colvars: Saving collective variables state to "rest.colvars.state".
colvars: Synchronizing (emptying the buffer of) trajectory file "Run4_IC_Rg_175A_Es_3kT_Ens05kT.colvars.traj".
colvars: Saving collective variables state to "rest.colvars.state".
colvars: Synchronizing (emptying the buffer of) trajectory file "Run4_IC_Rg_175A_Es_3kT_Ens05kT.colvars.traj".
colvars: Saving collective variables state to "rest.colvars.state".
colvars: Synchronizing (emptying the buffer of) trajectory file "Run4_IC_Rg_175A_Es_3kT_Ens05kT.colvars.traj".
colvars: Saving collective variables state to "rest.colvars.state".
colvars: Synchronizing (emptying the buffer of) trajectory file "Run4_IC_Rg_175A_Es_3kT_Ens05kT.colvars.traj".
colvars: Saving collective variables state to "rest.colvars.state".
colvars: Synchronizing (emptying the buffer of) trajectory file "Run4_IC_Rg_175A_Es_3kT_Ens05kT.colvars.traj".
colvars: Saving collective variables state to "rest.colvars.state".
 2000000   -1878.0782    2565.2607    4618.5694    1547.6794    2895.6595    309.94885     5152 
colvars: Synchronizing (emptying the buffer of) trajectory file "Run4_IC_Rg_175A_Es_3kT_Ens05kT.colvars.traj".
colvars: Saving collective variables state to "rest.colvars.state".
colvars: Synchronizing (emptying the buffer of) trajectory file "Run4_IC_Rg_175A_Es_3kT_Ens05kT.colvars.traj".
colvars: Saving collective variables state to "rest.colvars.state".
colvars: Synchronizing (emptying the buffer of) trajectory file "Run4_IC_Rg_175A_Es_3kT_Ens05kT.colvars.traj".
colvars: Saving collective variables state to "rest.colvars.state".
colvars: Synchronizing (emptying the buffer of) trajectory file "Run4_IC_Rg_175A_Es_3kT_Ens05kT.colvars.traj".
colvars: Saving collective variables state to "rest.colvars.state".
colvars: Synchronizing (emptying the buffer of) trajectory file "Run4_IC_Rg_175A_Es_3kT_Ens05kT.colvars.traj".
colvars: Saving collective variables state to "rest.colvars.state".
colvars: Synchronizing (emptying the buffer of) trajectory file "Run4_IC_Rg_175A_Es_3kT_Ens05kT.colvars.traj".
colvars: Saving collective variables state to "rest.colvars.state".
colvars: Synchronizing (emptying the buffer of) trajectory file "Run4_IC_Rg_175A_Es_3kT_Ens05kT.colvars.traj".
colvars: Saving collective variables state to "rest.colvars.state".
colvars: Synchronizing (emptying the buffer of) trajectory file "Run4_IC_Rg_175A_Es_3kT_Ens05kT.colvars.traj".
colvars: Saving collective variables state to "rest.colvars.state".
colvars: Synchronizing (emptying the buffer of) trajectory file "Run4_IC_Rg_175A_Es_3kT_Ens05kT.colvars.traj".
colvars: Saving collective variables state to "rest.colvars.state".
colvars: Synchronizing (emptying the buffer of) trajectory file "Run4_IC_Rg_175A_Es_3kT_Ens05kT.colvars.traj".
colvars: Saving collective variables state to "rest.colvars.state".
colvars: Synchronizing (emptying the buffer of) trajectory file "Run4_IC_Rg_175A_Es_3kT_Ens05kT.colvars.traj".
colvars: Saving collective variables state to "rest.colvars.state".
colvars: Synchronizing (emptying the buffer of) trajectory file "Run4_IC_Rg_175A_Es_3kT_Ens05kT.colvars.traj".
colvars: Saving collective variables state to "rest.colvars.state".
colvars: Synchronizing (emptying the buffer of) trajectory file "Run4_IC_Rg_175A_Es_3kT_Ens05kT.colvars.traj".
colvars: Saving collective variables state to "rest.colvars.state".
colvars: Synchronizing (emptying the buffer of) trajectory file "Run4_IC_Rg_175A_Es_3kT_Ens05kT.colvars.traj".
colvars: Saving collective variables state to "rest.colvars.state".
colvars: Synchronizing (emptying the buffer of) trajectory file "Run4_IC_Rg_175A_Es_3kT_Ens05kT.colvars.traj".
colvars: Saving collective variables state to "rest.colvars.state".
colvars: Synchronizing (emptying the buffer of) trajectory file "Run4_IC_Rg_175A_Es_3kT_Ens05kT.colvars.traj".
colvars: Saving collective variables state to "rest.colvars.state".
colvars: Synchronizing (emptying the buffer of) trajectory file "Run4_IC_Rg_175A_Es_3kT_Ens05kT.colvars.traj".
colvars: Saving collective variables state to "rest.colvars.state".
colvars: Synchronizing (emptying the buffer of) trajectory file "Run4_IC_Rg_175A_Es_3kT_Ens05kT.colvars.traj".
colvars: Saving collective variables state to "rest.colvars.state".
colvars: Synchronizing (emptying the buffer of) trajectory file "Run4_IC_Rg_175A_Es_3kT_Ens05kT.colvars.traj".
colvars: Saving collective variables state to "rest.colvars.state".
colvars: Synchronizing (emptying the buffer of) trajectory file "Run4_IC_Rg_175A_Es_3kT_Ens05kT.colvars.traj".
colvars: Saving collective variables state to "rest.colvars.state".
 3000000   -2070.9939    2429.0417    4620.7941    1582.0036    2918.0321    310.09815     5160 
colvars: Synchronizing (emptying the buffer of) trajectory file "Run4_IC_Rg_175A_Es_3kT_Ens05kT.colvars.traj".
colvars: Saving collective variables state to "rest.colvars.state".
colvars: Synchronizing (emptying the buffer of) trajectory file "Run4_IC_Rg_175A_Es_3kT_Ens05kT.colvars.traj".
colvars: Saving collective variables state to "rest.colvars.state".
colvars: Synchronizing (emptying the buffer of) trajectory file "Run4_IC_Rg_175A_Es_3kT_Ens05kT.colvars.traj".
colvars: Saving collective variables state to "rest.colvars.state".
colvars: Synchronizing (emptying the buffer of) trajectory file "Run4_IC_Rg_175A_Es_3kT_Ens05kT.colvars.traj".
colvars: Saving collective variables state to "rest.colvars.state".
colvars: Synchronizing (emptying the buffer of) trajectory file "Run4_IC_Rg_175A_Es_3kT_Ens05kT.colvars.traj".
colvars: Saving collective variables state to "rest.colvars.state".
colvars: Synchronizing (emptying the buffer of) trajectory file "Run4_IC_Rg_175A_Es_3kT_Ens05kT.colvars.traj".
colvars: Saving collective variables state to "rest.colvars.state".
colvars: Synchronizing (emptying the buffer of) trajectory file "Run4_IC_Rg_175A_Es_3kT_Ens05kT.colvars.traj".
colvars: Saving collective variables state to "rest.colvars.state".
colvars: Synchronizing (emptying the buffer of) trajectory file "Run4_IC_Rg_175A_Es_3kT_Ens05kT.colvars.traj".
colvars: Saving collective variables state to "rest.colvars.state".
colvars: Synchronizing (emptying the buffer of) trajectory file "Run4_IC_Rg_175A_Es_3kT_Ens05kT.colvars.traj".
colvars: Saving collective variables state to "rest.colvars.state".
colvars: Synchronizing (emptying the buffer of) trajectory file "Run4_IC_Rg_175A_Es_3kT_Ens05kT.colvars.traj".
colvars: Saving collective variables state to "rest.colvars.state".
colvars: Synchronizing (emptying the buffer of) trajectory file "Run4_IC_Rg_175A_Es_3kT_Ens05kT.colvars.traj".
colvars: Saving collective variables state to "rest.colvars.state".
colvars: Synchronizing (emptying the buffer of) trajectory file "Run4_IC_Rg_175A_Es_3kT_Ens05kT.colvars.traj".
colvars: Saving collective variables state to "rest.colvars.state".
colvars: Synchronizing (emptying the buffer of) trajectory file "Run4_IC_Rg_175A_Es_3kT_Ens05kT.colvars.traj".
colvars: Saving collective variables state to "rest.colvars.state".
colvars: Synchronizing (emptying the buffer of) trajectory file "Run4_IC_Rg_175A_Es_3kT_Ens05kT.colvars.traj".
colvars: Saving collective variables state to "rest.colvars.state".
colvars: Synchronizing (emptying the buffer of) trajectory file "Run4_IC_Rg_175A_Es_3kT_Ens05kT.colvars.traj".
colvars: Saving collective variables state to "rest.colvars.state".
colvars: Synchronizing (emptying the buffer of) trajectory file "Run4_IC_Rg_175A_Es_3kT_Ens05kT.colvars.traj".
colvars: Saving collective variables state to "rest.colvars.state".
colvars: Synchronizing (emptying the buffer of) trajectory file "Run4_IC_Rg_175A_Es_3kT_Ens05kT.colvars.traj".
colvars: Saving collective variables state to "rest.colvars.state".
colvars: Synchronizing (emptying the buffer of) trajectory file "Run4_IC_Rg_175A_Es_3kT_Ens05kT.colvars.traj".
colvars: Saving collective variables state to "rest.colvars.state".
colvars: Synchronizing (emptying the buffer of) trajectory file "Run4_IC_Rg_175A_Es_3kT_Ens05kT.colvars.traj".
colvars: Saving collective variables state to "rest.colvars.state".
colvars: Synchronizing (emptying the buffer of) trajectory file "Run4_IC_Rg_175A_Es_3kT_Ens05kT.colvars.traj".
colvars: Saving collective variables state to "rest.colvars.state".
 4000000   -2262.1573    2261.6533     4595.422    1524.6691    2999.1414    308.39545     5195 
colvars: Synchronizing (emptying the buffer of) trajectory file "Run4_IC_Rg_175A_Es_3kT_Ens05kT.colvars.traj".
colvars: Saving collective variables state to "rest.colvars.state".
colvars: Synchronizing (emptying the buffer of) trajectory file "Run4_IC_Rg_175A_Es_3kT_Ens05kT.colvars.traj".
colvars: Saving collective variables state to "rest.colvars.state".
colvars: Synchronizing (emptying the buffer of) trajectory file "Run4_IC_Rg_175A_Es_3kT_Ens05kT.colvars.traj".
colvars: Saving collective variables state to "rest.colvars.state".
colvars: Synchronizing (emptying the buffer of) trajectory file "Run4_IC_Rg_175A_Es_3kT_Ens05kT.colvars.traj".
colvars: Saving collective variables state to "rest.colvars.state".
colvars: Synchronizing (emptying the buffer of) trajectory file "Run4_IC_Rg_175A_Es_3kT_Ens05kT.colvars.traj".
colvars: Saving collective variables state to "rest.colvars.state".
colvars: Synchronizing (emptying the buffer of) trajectory file "Run4_IC_Rg_175A_Es_3kT_Ens05kT.colvars.traj".
colvars: Saving collective variables state to "rest.colvars.state".
colvars: Synchronizing (emptying the buffer of) trajectory file "Run4_IC_Rg_175A_Es_3kT_Ens05kT.colvars.traj".
colvars: Saving collective variables state to "rest.colvars.state".
colvars: Synchronizing (emptying the buffer of) trajectory file "Run4_IC_Rg_175A_Es_3kT_Ens05kT.colvars.traj".
colvars: Saving collective variables state to "rest.colvars.state".
colvars: Synchronizing (emptying the buffer of) trajectory file "Run4_IC_Rg_175A_Es_3kT_Ens05kT.colvars.traj".
colvars: Saving collective variables state to "rest.colvars.state".
colvars: Synchronizing (emptying the buffer of) trajectory file "Run4_IC_Rg_175A_Es_3kT_Ens05kT.colvars.traj".
colvars: Saving collective variables state to "rest.colvars.state".
colvars: Synchronizing (emptying the buffer of) trajectory file "Run4_IC_Rg_175A_Es_3kT_Ens05kT.colvars.traj".
colvars: Saving collective variables state to "rest.colvars.state".
colvars: Synchronizing (emptying the buffer of) trajectory file "Run4_IC_Rg_175A_Es_3kT_Ens05kT.colvars.traj".
colvars: Saving collective variables state to "rest.colvars.state".
colvars: Synchronizing (emptying the buffer of) trajectory file "Run4_IC_Rg_175A_Es_3kT_Ens05kT.colvars.traj".
colvars: Saving collective variables state to "rest.colvars.state".
colvars: Synchronizing (emptying the buffer of) trajectory file "Run4_IC_Rg_175A_Es_3kT_Ens05kT.colvars.traj".
colvars: Saving collective variables state to "rest.colvars.state".
colvars: Synchronizing (emptying the buffer of) trajectory file "Run4_IC_Rg_175A_Es_3kT_Ens05kT.colvars.traj".
colvars: Saving collective variables state to "rest.colvars.state".
colvars: Synchronizing (emptying the buffer of) trajectory file "Run4_IC_Rg_175A_Es_3kT_Ens05kT.colvars.traj".
colvars: Saving collective variables state to "rest.colvars.state".
colvars: Synchronizing (emptying the buffer of) trajectory file "Run4_IC_Rg_175A_Es_3kT_Ens05kT.colvars.traj".
colvars: Saving collective variables state to "rest.colvars.state".
colvars: Synchronizing (emptying the buffer of) trajectory file "Run4_IC_Rg_175A_Es_3kT_Ens05kT.colvars.traj".
colvars: Saving collective variables state to "rest.colvars.state".
colvars: Synchronizing (emptying the buffer of) trajectory file "Run4_IC_Rg_175A_Es_3kT_Ens05kT.colvars.traj".
colvars: Saving collective variables state to "rest.colvars.state".
colvars: Synchronizing (emptying the buffer of) trajectory file "Run4_IC_Rg_175A_Es_3kT_Ens05kT.colvars.traj".
colvars: Saving collective variables state to "rest.colvars.state".
 5000000    -2422.644    2064.9945    4675.5088    1548.7518    2938.8866    313.77002     5196 
colvars: Synchronizing (emptying the buffer of) trajectory file "Run4_IC_Rg_175A_Es_3kT_Ens05kT.colvars.traj".
colvars: Saving collective variables state to "rest.colvars.state".
colvars: Synchronizing (emptying the buffer of) trajectory file "Run4_IC_Rg_175A_Es_3kT_Ens05kT.colvars.traj".
colvars: Saving collective variables state to "rest.colvars.state".
colvars: Synchronizing (emptying the buffer of) trajectory file "Run4_IC_Rg_175A_Es_3kT_Ens05kT.colvars.traj".
colvars: Saving collective variables state to "rest.colvars.state".
colvars: Synchronizing (emptying the buffer of) trajectory file "Run4_IC_Rg_175A_Es_3kT_Ens05kT.colvars.traj".
colvars: Saving collective variables state to "rest.colvars.state".
colvars: Synchronizing (emptying the buffer of) trajectory file "Run4_IC_Rg_175A_Es_3kT_Ens05kT.colvars.traj".
colvars: Saving collective variables state to "rest.colvars.state".
colvars: Synchronizing (emptying the buffer of) trajectory file "Run4_IC_Rg_175A_Es_3kT_Ens05kT.colvars.traj".
colvars: Saving collective variables state to "rest.colvars.state".
colvars: Synchronizing (emptying the buffer of) trajectory file "Run4_IC_Rg_175A_Es_3kT_Ens05kT.colvars.traj".
colvars: Saving collective variables state to "rest.colvars.state".
colvars: Synchronizing (emptying the buffer of) trajectory file "Run4_IC_Rg_175A_Es_3kT_Ens05kT.colvars.traj".
colvars: Saving collective variables state to "rest.colvars.state".
colvars: Synchronizing (emptying the buffer of) trajectory file "Run4_IC_Rg_175A_Es_3kT_Ens05kT.colvars.traj".
colvars: Saving collective variables state to "rest.colvars.state".
colvars: Synchronizing (emptying the buffer of) trajectory file "Run4_IC_Rg_175A_Es_3kT_Ens05kT.colvars.traj".
colvars: Saving collective variables state to "rest.colvars.state".
colvars: Synchronizing (emptying the buffer of) trajectory file "Run4_IC_Rg_175A_Es_3kT_Ens05kT.colvars.traj".
colvars: Saving collective variables state to "rest.colvars.state".
colvars: Synchronizing (emptying the buffer of) trajectory file "Run4_IC_Rg_175A_Es_3kT_Ens05kT.colvars.traj".
colvars: Saving collective variables state to "rest.colvars.state".
colvars: Synchronizing (emptying the buffer of) trajectory file "Run4_IC_Rg_175A_Es_3kT_Ens05kT.colvars.traj".
colvars: Saving collective variables state to "rest.colvars.state".
colvars: Synchronizing (emptying the buffer of) trajectory file "Run4_IC_Rg_175A_Es_3kT_Ens05kT.colvars.traj".
colvars: Saving collective variables state to "rest.colvars.state".
colvars: Synchronizing (emptying the buffer of) trajectory file "Run4_IC_Rg_175A_Es_3kT_Ens05kT.colvars.traj".
colvars: Saving collective variables state to "rest.colvars.state".
colvars: Synchronizing (emptying the buffer of) trajectory file "Run4_IC_Rg_175A_Es_3kT_Ens05kT.colvars.traj".
colvars: Saving collective variables state to "rest.colvars.state".
colvars: Synchronizing (emptying the buffer of) trajectory file "Run4_IC_Rg_175A_Es_3kT_Ens05kT.colvars.traj".
colvars: Saving collective variables state to "rest.colvars.state".
colvars: Synchronizing (emptying the buffer of) trajectory file "Run4_IC_Rg_175A_Es_3kT_Ens05kT.colvars.traj".
colvars: Saving collective variables state to "rest.colvars.state".
colvars: Synchronizing (emptying the buffer of) trajectory file "Run4_IC_Rg_175A_Es_3kT_Ens05kT.colvars.traj".
colvars: Saving collective variables state to "rest.colvars.state".
colvars: Synchronizing (emptying the buffer of) trajectory file "Run4_IC_Rg_175A_Es_3kT_Ens05kT.colvars.traj".
colvars: Saving collective variables state to "rest.colvars.state".
 6000000   -2613.6515    1911.5898    4607.1387    1573.1268    2952.1146    309.18175     5209 
colvars: Synchronizing (emptying the buffer of) trajectory file "Run4_IC_Rg_175A_Es_3kT_Ens05kT.colvars.traj".
colvars: Saving collective variables state to "rest.colvars.state".
colvars: Synchronizing (emptying the buffer of) trajectory file "Run4_IC_Rg_175A_Es_3kT_Ens05kT.colvars.traj".
colvars: Saving collective variables state to "rest.colvars.state".
colvars: Synchronizing (emptying the buffer of) trajectory file "Run4_IC_Rg_175A_Es_3kT_Ens05kT.colvars.traj".
colvars: Saving collective variables state to "rest.colvars.state".
colvars: Synchronizing (emptying the buffer of) trajectory file "Run4_IC_Rg_175A_Es_3kT_Ens05kT.colvars.traj".
colvars: Saving collective variables state to "rest.colvars.state".
colvars: Synchronizing (emptying the buffer of) trajectory file "Run4_IC_Rg_175A_Es_3kT_Ens05kT.colvars.traj".
colvars: Saving collective variables state to "rest.colvars.state".
colvars: Synchronizing (emptying the buffer of) trajectory file "Run4_IC_Rg_175A_Es_3kT_Ens05kT.colvars.traj".
colvars: Saving collective variables state to "rest.colvars.state".
colvars: Synchronizing (emptying the buffer of) trajectory file "Run4_IC_Rg_175A_Es_3kT_Ens05kT.colvars.traj".
colvars: Saving collective variables state to "rest.colvars.state".
colvars: Synchronizing (emptying the buffer of) trajectory file "Run4_IC_Rg_175A_Es_3kT_Ens05kT.colvars.traj".
colvars: Saving collective variables state to "rest.colvars.state".
colvars: Synchronizing (emptying the buffer of) trajectory file "Run4_IC_Rg_175A_Es_3kT_Ens05kT.colvars.traj".
colvars: Saving collective variables state to "rest.colvars.state".
colvars: Synchronizing (emptying the buffer of) trajectory file "Run4_IC_Rg_175A_Es_3kT_Ens05kT.colvars.traj".
colvars: Saving collective variables state to "rest.colvars.state".
colvars: Synchronizing (emptying the buffer of) trajectory file "Run4_IC_Rg_175A_Es_3kT_Ens05kT.colvars.traj".
colvars: Saving collective variables state to "rest.colvars.state".
colvars: Synchronizing (emptying the buffer of) trajectory file "Run4_IC_Rg_175A_Es_3kT_Ens05kT.colvars.traj".
colvars: Saving collective variables state to "rest.colvars.state".
colvars: Synchronizing (emptying the buffer of) trajectory file "Run4_IC_Rg_175A_Es_3kT_Ens05kT.colvars.traj".
colvars: Saving collective variables state to "rest.colvars.state".
colvars: Synchronizing (emptying the buffer of) trajectory file "Run4_IC_Rg_175A_Es_3kT_Ens05kT.colvars.traj".
colvars: Saving collective variables state to "rest.colvars.state".
colvars: Synchronizing (emptying the buffer of) trajectory file "Run4_IC_Rg_175A_Es_3kT_Ens05kT.colvars.traj".
colvars: Saving collective variables state to "rest.colvars.state".
colvars: Synchronizing (emptying the buffer of) trajectory file "Run4_IC_Rg_175A_Es_3kT_Ens05kT.colvars.traj".
colvars: Saving collective variables state to "rest.colvars.state".
colvars: Synchronizing (emptying the buffer of) trajectory file "Run4_IC_Rg_175A_Es_3kT_Ens05kT.colvars.traj".
colvars: Saving collective variables state to "rest.colvars.state".
colvars: Synchronizing (emptying the buffer of) trajectory file "Run4_IC_Rg_175A_Es_3kT_Ens05kT.colvars.traj".
colvars: Saving collective variables state to "rest.colvars.state".
colvars: Synchronizing (emptying the buffer of) trajectory file "Run4_IC_Rg_175A_Es_3kT_Ens05kT.colvars.traj".
colvars: Saving collective variables state to "rest.colvars.state".
colvars: Synchronizing (emptying the buffer of) trajectory file "Run4_IC_Rg_175A_Es_3kT_Ens05kT.colvars.traj".
colvars: Saving collective variables state to "rest.colvars.state".
 7000000   -2654.9906    1913.3326    4622.8845     1575.565    2992.7581    310.23843     5209 
colvars: Synchronizing (emptying the buffer of) trajectory file "Run4_IC_Rg_175A_Es_3kT_Ens05kT.colvars.traj".
colvars: Saving collective variables state to "rest.colvars.state".
colvars: Synchronizing (emptying the buffer of) trajectory file "Run4_IC_Rg_175A_Es_3kT_Ens05kT.colvars.traj".
colvars: Saving collective variables state to "rest.colvars.state".
colvars: Synchronizing (emptying the buffer of) trajectory file "Run4_IC_Rg_175A_Es_3kT_Ens05kT.colvars.traj".
colvars: Saving collective variables state to "rest.colvars.state".
colvars: Synchronizing (emptying the buffer of) trajectory file "Run4_IC_Rg_175A_Es_3kT_Ens05kT.colvars.traj".
colvars: Saving collective variables state to "rest.colvars.state".
colvars: Synchronizing (emptying the buffer of) trajectory file "Run4_IC_Rg_175A_Es_3kT_Ens05kT.colvars.traj".
colvars: Saving collective variables state to "rest.colvars.state".
colvars: Synchronizing (emptying the buffer of) trajectory file "Run4_IC_Rg_175A_Es_3kT_Ens05kT.colvars.traj".
colvars: Saving collective variables state to "rest.colvars.state".
colvars: Synchronizing (emptying the buffer of) trajectory file "Run4_IC_Rg_175A_Es_3kT_Ens05kT.colvars.traj".
colvars: Saving collective variables state to "rest.colvars.state".
colvars: Synchronizing (emptying the buffer of) trajectory file "Run4_IC_Rg_175A_Es_3kT_Ens05kT.colvars.traj".
colvars: Saving collective variables state to "rest.colvars.state".
colvars: Synchronizing (emptying the buffer of) trajectory file "Run4_IC_Rg_175A_Es_3kT_Ens05kT.colvars.traj".
colvars: Saving collective variables state to "rest.colvars.state".
colvars: Synchronizing (emptying the buffer of) trajectory file "Run4_IC_Rg_175A_Es_3kT_Ens05kT.colvars.traj".
colvars: Saving collective variables state to "rest.colvars.state".
colvars: Synchronizing (emptying the buffer of) trajectory file "Run4_IC_Rg_175A_Es_3kT_Ens05kT.colvars.traj".
colvars: Saving collective variables state to "rest.colvars.state".
colvars: Synchronizing (emptying the buffer of) trajectory file "Run4_IC_Rg_175A_Es_3kT_Ens05kT.colvars.traj".
colvars: Saving collective variables state to "rest.colvars.state".
colvars: Synchronizing (emptying the buffer of) trajectory file "Run4_IC_Rg_175A_Es_3kT_Ens05kT.colvars.traj".
colvars: Saving collective variables state to "rest.colvars.state".
colvars: Synchronizing (emptying the buffer of) trajectory file "Run4_IC_Rg_175A_Es_3kT_Ens05kT.colvars.traj".
colvars: Saving collective variables state to "rest.colvars.state".
colvars: Synchronizing (emptying the buffer of) trajectory file "Run4_IC_Rg_175A_Es_3kT_Ens05kT.colvars.traj".
colvars: Saving collective variables state to "rest.colvars.state".
colvars: Synchronizing (emptying the buffer of) trajectory file "Run4_IC_Rg_175A_Es_3kT_Ens05kT.colvars.traj".
colvars: Saving collective variables state to "rest.colvars.state".
colvars: Synchronizing (emptying the buffer of) trajectory file "Run4_IC_Rg_175A_Es_3kT_Ens05kT.colvars.traj".
colvars: Saving collective variables state to "rest.colvars.state".
colvars: Synchronizing (emptying the buffer of) trajectory file "Run4_IC_Rg_175A_Es_3kT_Ens05kT.colvars.traj".
colvars: Saving collective variables state to "rest.colvars.state".
colvars: Synchronizing (emptying the buffer of) trajectory file "Run4_IC_Rg_175A_Es_3kT_Ens05kT.colvars.traj".
colvars: Saving collective variables state to "rest.colvars.state".
colvars: Synchronizing (emptying the buffer of) trajectory file "Run4_IC_Rg_175A_Es_3kT_Ens05kT.colvars.traj".
colvars: Saving collective variables state to "rest.colvars.state".
 8000000   -2897.7791    1589.0169    4656.4197    1527.5293    2959.2668    312.48896     5226 
colvars: Synchronizing (emptying the buffer of) trajectory file "Run4_IC_Rg_175A_Es_3kT_Ens05kT.colvars.traj".
colvars: Saving collective variables state to "rest.colvars.state".
colvars: Synchronizing (emptying the buffer of) trajectory file "Run4_IC_Rg_175A_Es_3kT_Ens05kT.colvars.traj".
colvars: Saving collective variables state to "rest.colvars.state".
colvars: Synchronizing (emptying the buffer of) trajectory file "Run4_IC_Rg_175A_Es_3kT_Ens05kT.colvars.traj".
colvars: Saving collective variables state to "rest.colvars.state".
colvars: Synchronizing (emptying the buffer of) trajectory file "Run4_IC_Rg_175A_Es_3kT_Ens05kT.colvars.traj".
colvars: Saving collective variables state to "rest.colvars.state".
colvars: Synchronizing (emptying the buffer of) trajectory file "Run4_IC_Rg_175A_Es_3kT_Ens05kT.colvars.traj".
colvars: Saving collective variables state to "rest.colvars.state".
colvars: Synchronizing (emptying the buffer of) trajectory file "Run4_IC_Rg_175A_Es_3kT_Ens05kT.colvars.traj".
colvars: Saving collective variables state to "rest.colvars.state".
colvars: Synchronizing (emptying the buffer of) trajectory file "Run4_IC_Rg_175A_Es_3kT_Ens05kT.colvars.traj".
colvars: Saving collective variables state to "rest.colvars.state".
colvars: Synchronizing (emptying the buffer of) trajectory file "Run4_IC_Rg_175A_Es_3kT_Ens05kT.colvars.traj".
colvars: Saving collective variables state to "rest.colvars.state".
colvars: Synchronizing (emptying the buffer of) trajectory file "Run4_IC_Rg_175A_Es_3kT_Ens05kT.colvars.traj".
colvars: Saving collective variables state to "rest.colvars.state".
colvars: Synchronizing (emptying the buffer of) trajectory file "Run4_IC_Rg_175A_Es_3kT_Ens05kT.colvars.traj".
colvars: Saving collective variables state to "rest.colvars.state".
colvars: Synchronizing (emptying the buffer of) trajectory file "Run4_IC_Rg_175A_Es_3kT_Ens05kT.colvars.traj".
colvars: Saving collective variables state to "rest.colvars.state".
colvars: Synchronizing (emptying the buffer of) trajectory file "Run4_IC_Rg_175A_Es_3kT_Ens05kT.colvars.traj".
colvars: Saving collective variables state to "rest.colvars.state".
colvars: Synchronizing (emptying the buffer of) trajectory file "Run4_IC_Rg_175A_Es_3kT_Ens05kT.colvars.traj".
colvars: Saving collective variables state to "rest.colvars.state".
colvars: Synchronizing (emptying the buffer of) trajectory file "Run4_IC_Rg_175A_Es_3kT_Ens05kT.colvars.traj".
colvars: Saving collective variables state to "rest.colvars.state".
colvars: Synchronizing (emptying the buffer of) trajectory file "Run4_IC_Rg_175A_Es_3kT_Ens05kT.colvars.traj".
colvars: Saving collective variables state to "rest.colvars.state".
colvars: Synchronizing (emptying the buffer of) trajectory file "Run4_IC_Rg_175A_Es_3kT_Ens05kT.colvars.traj".
colvars: Saving collective variables state to "rest.colvars.state".
colvars: Synchronizing (emptying the buffer of) trajectory file "Run4_IC_Rg_175A_Es_3kT_Ens05kT.colvars.traj".
colvars: Saving collective variables state to "rest.colvars.state".
colvars: Synchronizing (emptying the buffer of) trajectory file "Run4_IC_Rg_175A_Es_3kT_Ens05kT.colvars.traj".
colvars: Saving collective variables state to "rest.colvars.state".
colvars: Synchronizing (emptying the buffer of) trajectory file "Run4_IC_Rg_175A_Es_3kT_Ens05kT.colvars.traj".
colvars: Saving collective variables state to "rest.colvars.state".
colvars: Synchronizing (emptying the buffer of) trajectory file "Run4_IC_Rg_175A_Es_3kT_Ens05kT.colvars.traj".
colvars: Saving collective variables state to "rest.colvars.state".
 9000000   -3086.5201    1388.6887    4576.6968    1552.6366    2922.5721    307.13881     5229 
colvars: Synchronizing (emptying the buffer of) trajectory file "Run4_IC_Rg_175A_Es_3kT_Ens05kT.colvars.traj".
colvars: Saving collective variables state to "rest.colvars.state".
colvars: Synchronizing (emptying the buffer of) trajectory file "Run4_IC_Rg_175A_Es_3kT_Ens05kT.colvars.traj".
colvars: Saving collective variables state to "rest.colvars.state".
colvars: Synchronizing (emptying the buffer of) trajectory file "Run4_IC_Rg_175A_Es_3kT_Ens05kT.colvars.traj".
colvars: Saving collective variables state to "rest.colvars.state".
colvars: Synchronizing (emptying the buffer of) trajectory file "Run4_IC_Rg_175A_Es_3kT_Ens05kT.colvars.traj".
colvars: Saving collective variables state to "rest.colvars.state".
colvars: Synchronizing (emptying the buffer of) trajectory file "Run4_IC_Rg_175A_Es_3kT_Ens05kT.colvars.traj".
colvars: Saving collective variables state to "rest.colvars.state".
colvars: Synchronizing (emptying the buffer of) trajectory file "Run4_IC_Rg_175A_Es_3kT_Ens05kT.colvars.traj".
colvars: Saving collective variables state to "rest.colvars.state".
colvars: Synchronizing (emptying the buffer of) trajectory file "Run4_IC_Rg_175A_Es_3kT_Ens05kT.colvars.traj".
colvars: Saving collective variables state to "rest.colvars.state".
colvars: Synchronizing (emptying the buffer of) trajectory file "Run4_IC_Rg_175A_Es_3kT_Ens05kT.colvars.traj".
colvars: Saving collective variables state to "rest.colvars.state".
colvars: Synchronizing (emptying the buffer of) trajectory file "Run4_IC_Rg_175A_Es_3kT_Ens05kT.colvars.traj".
colvars: Saving collective variables state to "rest.colvars.state".
colvars: Synchronizing (emptying the buffer of) trajectory file "Run4_IC_Rg_175A_Es_3kT_Ens05kT.colvars.traj".
colvars: Saving collective variables state to "rest.colvars.state".
colvars: Synchronizing (emptying the buffer of) trajectory file "Run4_IC_Rg_175A_Es_3kT_Ens05kT.colvars.traj".
colvars: Saving collective variables state to "rest.colvars.state".
colvars: Synchronizing (emptying the buffer of) trajectory file "Run4_IC_Rg_175A_Es_3kT_Ens05kT.colvars.traj".
colvars: Saving collective variables state to "rest.colvars.state".
colvars: Synchronizing (emptying the buffer of) trajectory file "Run4_IC_Rg_175A_Es_3kT_Ens05kT.colvars.traj".
colvars: Saving collective variables state to "rest.colvars.state".
colvars: Synchronizing (emptying the buffer of) trajectory file "Run4_IC_Rg_175A_Es_3kT_Ens05kT.colvars.traj".
colvars: Saving collective variables state to "rest.colvars.state".
colvars: Synchronizing (emptying the buffer of) trajectory file "Run4_IC_Rg_175A_Es_3kT_Ens05kT.colvars.traj".
colvars: Saving collective variables state to "rest.colvars.state".
colvars: Synchronizing (emptying the buffer of) trajectory file "Run4_IC_Rg_175A_Es_3kT_Ens05kT.colvars.traj".
colvars: Saving collective variables state to "rest.colvars.state".
colvars: Synchronizing (emptying the buffer of) trajectory file "Run4_IC_Rg_175A_Es_3kT_Ens05kT.colvars.traj".
colvars: Saving collective variables state to "rest.colvars.state".
colvars: Synchronizing (emptying the buffer of) trajectory file "Run4_IC_Rg_175A_Es_3kT_Ens05kT.colvars.traj".
colvars: Saving collective variables state to "rest.colvars.state".
colvars: Synchronizing (emptying the buffer of) trajectory file "Run4_IC_Rg_175A_Es_3kT_Ens05kT.colvars.traj".
colvars: Saving collective variables state to "rest.colvars.state".
colvars: Synchronizing (emptying the buffer of) trajectory file "Run4_IC_Rg_175A_Es_3kT_Ens05kT.colvars.traj".
colvars: Saving collective variables state to "rest.colvars.state".
10000000   -3177.4538    1300.6358    4493.8049     1539.141    2938.9485      301.576     5233 
colvars: Synchronizing (emptying the buffer of) trajectory file "Run4_IC_Rg_175A_Es_3kT_Ens05kT.colvars.traj".
colvars: Saving collective variables state to "rest.colvars.state".
colvars: Synchronizing (emptying the buffer of) trajectory file "Run4_IC_Rg_175A_Es_3kT_Ens05kT.colvars.traj".
colvars: Saving collective variables state to "rest.colvars.state".
colvars: Synchronizing (emptying the buffer of) trajectory file "Run4_IC_Rg_175A_Es_3kT_Ens05kT.colvars.traj".
colvars: Saving collective variables state to "rest.colvars.state".
colvars: Synchronizing (emptying the buffer of) trajectory file "Run4_IC_Rg_175A_Es_3kT_Ens05kT.colvars.traj".
colvars: Saving collective variables state to "rest.colvars.state".
colvars: Synchronizing (emptying the buffer of) trajectory file "Run4_IC_Rg_175A_Es_3kT_Ens05kT.colvars.traj".
colvars: Saving collective variables state to "rest.colvars.state".
colvars: Synchronizing (emptying the buffer of) trajectory file "Run4_IC_Rg_175A_Es_3kT_Ens05kT.colvars.traj".
colvars: Saving collective variables state to "rest.colvars.state".
colvars: Synchronizing (emptying the buffer of) trajectory file "Run4_IC_Rg_175A_Es_3kT_Ens05kT.colvars.traj".
colvars: Saving collective variables state to "rest.colvars.state".
colvars: Synchronizing (emptying the buffer of) trajectory file "Run4_IC_Rg_175A_Es_3kT_Ens05kT.colvars.traj".
colvars: Saving collective variables state to "rest.colvars.state".
colvars: Synchronizing (emptying the buffer of) trajectory file "Run4_IC_Rg_175A_Es_3kT_Ens05kT.colvars.traj".
colvars: Saving collective variables state to "rest.colvars.state".
colvars: Synchronizing (emptying the buffer of) trajectory file "Run4_IC_Rg_175A_Es_3kT_Ens05kT.colvars.traj".
colvars: Saving collective variables state to "rest.colvars.state".
colvars: Synchronizing (emptying the buffer of) trajectory file "Run4_IC_Rg_175A_Es_3kT_Ens05kT.colvars.traj".
colvars: Saving collective variables state to "rest.colvars.state".
colvars: Synchronizing (emptying the buffer of) trajectory file "Run4_IC_Rg_175A_Es_3kT_Ens05kT.colvars.traj".
colvars: Saving collective variables state to "rest.colvars.state".
colvars: Synchronizing (emptying the buffer of) trajectory file "Run4_IC_Rg_175A_Es_3kT_Ens05kT.colvars.traj".
colvars: Saving collective variables state to "rest.colvars.state".
colvars: Synchronizing (emptying the buffer of) trajectory file "Run4_IC_Rg_175A_Es_3kT_Ens05kT.colvars.traj".
colvars: Saving collective variables state to "rest.colvars.state".
colvars: Synchronizing (emptying the buffer of) trajectory file "Run4_IC_Rg_175A_Es_3kT_Ens05kT.colvars.traj".
colvars: Saving collective variables state to "rest.colvars.state".
colvars: Synchronizing (emptying the buffer of) trajectory file "Run4_IC_Rg_175A_Es_3kT_Ens05kT.colvars.traj".
colvars: Saving collective variables state to "rest.colvars.state".
colvars: Synchronizing (emptying the buffer of) trajectory file "Run4_IC_Rg_175A_Es_3kT_Ens05kT.colvars.traj".
colvars: Saving collective variables state to "rest.colvars.state".
colvars: Synchronizing (emptying the buffer of) trajectory file "Run4_IC_Rg_175A_Es_3kT_Ens05kT.colvars.traj".
colvars: Saving collective variables state to "rest.colvars.state".
colvars: Synchronizing (emptying the buffer of) trajectory file "Run4_IC_Rg_175A_Es_3kT_Ens05kT.colvars.traj".
colvars: Saving collective variables state to "rest.colvars.state".
colvars: Synchronizing (emptying the buffer of) trajectory file "Run4_IC_Rg_175A_Es_3kT_Ens05kT.colvars.traj".
colvars: Saving collective variables state to "rest.colvars.state".
11000000   -3380.4975    1089.4174     4636.139    1490.0604    2979.8544    311.12794     5243 
colvars: Synchronizing (emptying the buffer of) trajectory file "Run4_IC_Rg_175A_Es_3kT_Ens05kT.colvars.traj".
colvars: Saving collective variables state to "rest.colvars.state".
colvars: Synchronizing (emptying the buffer of) trajectory file "Run4_IC_Rg_175A_Es_3kT_Ens05kT.colvars.traj".
colvars: Saving collective variables state to "rest.colvars.state".
colvars: Synchronizing (emptying the buffer of) trajectory file "Run4_IC_Rg_175A_Es_3kT_Ens05kT.colvars.traj".
colvars: Saving collective variables state to "rest.colvars.state".
colvars: Synchronizing (emptying the buffer of) trajectory file "Run4_IC_Rg_175A_Es_3kT_Ens05kT.colvars.traj".
colvars: Saving collective variables state to "rest.colvars.state".
colvars: Synchronizing (emptying the buffer of) trajectory file "Run4_IC_Rg_175A_Es_3kT_Ens05kT.colvars.traj".
colvars: Saving collective variables state to "rest.colvars.state".
colvars: Synchronizing (emptying the buffer of) trajectory file "Run4_IC_Rg_175A_Es_3kT_Ens05kT.colvars.traj".
colvars: Saving collective variables state to "rest.colvars.state".
colvars: Synchronizing (emptying the buffer of) trajectory file "Run4_IC_Rg_175A_Es_3kT_Ens05kT.colvars.traj".
colvars: Saving collective variables state to "rest.colvars.state".
colvars: Synchronizing (emptying the buffer of) trajectory file "Run4_IC_Rg_175A_Es_3kT_Ens05kT.colvars.traj".
colvars: Saving collective variables state to "rest.colvars.state".
colvars: Synchronizing (emptying the buffer of) trajectory file "Run4_IC_Rg_175A_Es_3kT_Ens05kT.colvars.traj".
colvars: Saving collective variables state to "rest.colvars.state".
colvars: Synchronizing (emptying the buffer of) trajectory file "Run4_IC_Rg_175A_Es_3kT_Ens05kT.colvars.traj".
colvars: Saving collective variables state to "rest.colvars.state".
colvars: Synchronizing (emptying the buffer of) trajectory file "Run4_IC_Rg_175A_Es_3kT_Ens05kT.colvars.traj".
colvars: Saving collective variables state to "rest.colvars.state".
colvars: Synchronizing (emptying the buffer of) trajectory file "Run4_IC_Rg_175A_Es_3kT_Ens05kT.colvars.traj".
colvars: Saving collective variables state to "rest.colvars.state".
colvars: Synchronizing (emptying the buffer of) trajectory file "Run4_IC_Rg_175A_Es_3kT_Ens05kT.colvars.traj".
colvars: Saving collective variables state to "rest.colvars.state".
colvars: Synchronizing (emptying the buffer of) trajectory file "Run4_IC_Rg_175A_Es_3kT_Ens05kT.colvars.traj".
colvars: Saving collective variables state to "rest.colvars.state".
colvars: Synchronizing (emptying the buffer of) trajectory file "Run4_IC_Rg_175A_Es_3kT_Ens05kT.colvars.traj".
colvars: Saving collective variables state to "rest.colvars.state".
colvars: Synchronizing (emptying the buffer of) trajectory file "Run4_IC_Rg_175A_Es_3kT_Ens05kT.colvars.traj".
colvars: Saving collective variables state to "rest.colvars.state".
colvars: Synchronizing (emptying the buffer of) trajectory file "Run4_IC_Rg_175A_Es_3kT_Ens05kT.colvars.traj".
colvars: Saving collective variables state to "rest.colvars.state".
colvars: Synchronizing (emptying the buffer of) trajectory file "Run4_IC_Rg_175A_Es_3kT_Ens05kT.colvars.traj".
colvars: Saving collective variables state to "rest.colvars.state".
colvars: Synchronizing (emptying the buffer of) trajectory file "Run4_IC_Rg_175A_Es_3kT_Ens05kT.colvars.traj".
colvars: Saving collective variables state to "rest.colvars.state".
colvars: Synchronizing (emptying the buffer of) trajectory file "Run4_IC_Rg_175A_Es_3kT_Ens05kT.colvars.traj".
colvars: Saving collective variables state to "rest.colvars.state".
12000000    -3417.411    1097.7986    4639.3518    1543.0684    2972.1412    311.34355     5240 
colvars: Synchronizing (emptying the buffer of) trajectory file "Run4_IC_Rg_175A_Es_3kT_Ens05kT.colvars.traj".
colvars: Saving collective variables state to "rest.colvars.state".
colvars: Synchronizing (emptying the buffer of) trajectory file "Run4_IC_Rg_175A_Es_3kT_Ens05kT.colvars.traj".
colvars: Saving collective variables state to "rest.colvars.state".
colvars: Synchronizing (emptying the buffer of) trajectory file "Run4_IC_Rg_175A_Es_3kT_Ens05kT.colvars.traj".
colvars: Saving collective variables state to "rest.colvars.state".
colvars: Synchronizing (emptying the buffer of) trajectory file "Run4_IC_Rg_175A_Es_3kT_Ens05kT.colvars.traj".
colvars: Saving collective variables state to "rest.colvars.state".
colvars: Synchronizing (emptying the buffer of) trajectory file "Run4_IC_Rg_175A_Es_3kT_Ens05kT.colvars.traj".
colvars: Saving collective variables state to "rest.colvars.state".
colvars: Synchronizing (emptying the buffer of) trajectory file "Run4_IC_Rg_175A_Es_3kT_Ens05kT.colvars.traj".
colvars: Saving collective variables state to "rest.colvars.state".
colvars: Synchronizing (emptying the buffer of) trajectory file "Run4_IC_Rg_175A_Es_3kT_Ens05kT.colvars.traj".
colvars: Saving collective variables state to "rest.colvars.state".
colvars: Synchronizing (emptying the buffer of) trajectory file "Run4_IC_Rg_175A_Es_3kT_Ens05kT.colvars.traj".
colvars: Saving collective variables state to "rest.colvars.state".
colvars: Synchronizing (emptying the buffer of) trajectory file "Run4_IC_Rg_175A_Es_3kT_Ens05kT.colvars.traj".
colvars: Saving collective variables state to "rest.colvars.state".
colvars: Synchronizing (emptying the buffer of) trajectory file "Run4_IC_Rg_175A_Es_3kT_Ens05kT.colvars.traj".
colvars: Saving collective variables state to "rest.colvars.state".
colvars: Synchronizing (emptying the buffer of) trajectory file "Run4_IC_Rg_175A_Es_3kT_Ens05kT.colvars.traj".
colvars: Saving collective variables state to "rest.colvars.state".
colvars: Synchronizing (emptying the buffer of) trajectory file "Run4_IC_Rg_175A_Es_3kT_Ens05kT.colvars.traj".
colvars: Saving collective variables state to "rest.colvars.state".
colvars: Synchronizing (emptying the buffer of) trajectory file "Run4_IC_Rg_175A_Es_3kT_Ens05kT.colvars.traj".
colvars: Saving collective variables state to "rest.colvars.state".
colvars: Synchronizing (emptying the buffer of) trajectory file "Run4_IC_Rg_175A_Es_3kT_Ens05kT.colvars.traj".
colvars: Saving collective variables state to "rest.colvars.state".
colvars: Synchronizing (emptying the buffer of) trajectory file "Run4_IC_Rg_175A_Es_3kT_Ens05kT.colvars.traj".
colvars: Saving collective variables state to "rest.colvars.state".
colvars: Synchronizing (emptying the buffer of) trajectory file "Run4_IC_Rg_175A_Es_3kT_Ens05kT.colvars.traj".
colvars: Saving collective variables state to "rest.colvars.state".
colvars: Synchronizing (emptying the buffer of) trajectory file "Run4_IC_Rg_175A_Es_3kT_Ens05kT.colvars.traj".
colvars: Saving collective variables state to "rest.colvars.state".
colvars: Synchronizing (emptying the buffer of) trajectory file "Run4_IC_Rg_175A_Es_3kT_Ens05kT.colvars.traj".
colvars: Saving collective variables state to "rest.colvars.state".
colvars: Synchronizing (emptying the buffer of) trajectory file "Run4_IC_Rg_175A_Es_3kT_Ens05kT.colvars.traj".
colvars: Saving collective variables state to "rest.colvars.state".
colvars: Synchronizing (emptying the buffer of) trajectory file "Run4_IC_Rg_175A_Es_3kT_Ens05kT.colvars.traj".
colvars: Saving collective variables state to "rest.colvars.state".
13000000   -3520.7731     1026.107    4720.0614    1548.6096    2998.2704    316.75991     5240 
colvars: Synchronizing (emptying the buffer of) trajectory file "Run4_IC_Rg_175A_Es_3kT_Ens05kT.colvars.traj".
colvars: Saving collective variables state to "rest.colvars.state".
colvars: Synchronizing (emptying the buffer of) trajectory file "Run4_IC_Rg_175A_Es_3kT_Ens05kT.colvars.traj".
colvars: Saving collective variables state to "rest.colvars.state".
colvars: Synchronizing (emptying the buffer of) trajectory file "Run4_IC_Rg_175A_Es_3kT_Ens05kT.colvars.traj".
colvars: Saving collective variables state to "rest.colvars.state".
colvars: Synchronizing (emptying the buffer of) trajectory file "Run4_IC_Rg_175A_Es_3kT_Ens05kT.colvars.traj".
colvars: Saving collective variables state to "rest.colvars.state".
colvars: Synchronizing (emptying the buffer of) trajectory file "Run4_IC_Rg_175A_Es_3kT_Ens05kT.colvars.traj".
colvars: Saving collective variables state to "rest.colvars.state".
colvars: Synchronizing (emptying the buffer of) trajectory file "Run4_IC_Rg_175A_Es_3kT_Ens05kT.colvars.traj".
colvars: Saving collective variables state to "rest.colvars.state".
colvars: Synchronizing (emptying the buffer of) trajectory file "Run4_IC_Rg_175A_Es_3kT_Ens05kT.colvars.traj".
colvars: Saving collective variables state to "rest.colvars.state".
colvars: Synchronizing (emptying the buffer of) trajectory file "Run4_IC_Rg_175A_Es_3kT_Ens05kT.colvars.traj".
colvars: Saving collective variables state to "rest.colvars.state".
colvars: Synchronizing (emptying the buffer of) trajectory file "Run4_IC_Rg_175A_Es_3kT_Ens05kT.colvars.traj".
colvars: Saving collective variables state to "rest.colvars.state".
colvars: Synchronizing (emptying the buffer of) trajectory file "Run4_IC_Rg_175A_Es_3kT_Ens05kT.colvars.traj".
colvars: Saving collective variables state to "rest.colvars.state".
colvars: Synchronizing (emptying the buffer of) trajectory file "Run4_IC_Rg_175A_Es_3kT_Ens05kT.colvars.traj".
colvars: Saving collective variables state to "rest.colvars.state".
colvars: Synchronizing (emptying the buffer of) trajectory file "Run4_IC_Rg_175A_Es_3kT_Ens05kT.colvars.traj".
colvars: Saving collective variables state to "rest.colvars.state".
colvars: Synchronizing (emptying the buffer of) trajectory file "Run4_IC_Rg_175A_Es_3kT_Ens05kT.colvars.traj".
colvars: Saving collective variables state to "rest.colvars.state".
colvars: Synchronizing (emptying the buffer of) trajectory file "Run4_IC_Rg_175A_Es_3kT_Ens05kT.colvars.traj".
colvars: Saving collective variables state to "rest.colvars.state".
colvars: Synchronizing (emptying the buffer of) trajectory file "Run4_IC_Rg_175A_Es_3kT_Ens05kT.colvars.traj".
colvars: Saving collective variables state to "rest.colvars.state".
colvars: Synchronizing (emptying the buffer of) trajectory file "Run4_IC_Rg_175A_Es_3kT_Ens05kT.colvars.traj".
colvars: Saving collective variables state to "rest.colvars.state".
colvars: Synchronizing (emptying the buffer of) trajectory file "Run4_IC_Rg_175A_Es_3kT_Ens05kT.colvars.traj".
colvars: Saving collective variables state to "rest.colvars.state".
colvars: Synchronizing (emptying the buffer of) trajectory file "Run4_IC_Rg_175A_Es_3kT_Ens05kT.colvars.traj".
colvars: Saving collective variables state to "rest.colvars.state".
colvars: Synchronizing (emptying the buffer of) trajectory file "Run4_IC_Rg_175A_Es_3kT_Ens05kT.colvars.traj".
colvars: Saving collective variables state to "rest.colvars.state".
colvars: Synchronizing (emptying the buffer of) trajectory file "Run4_IC_Rg_175A_Es_3kT_Ens05kT.colvars.traj".
colvars: Saving collective variables state to "rest.colvars.state".
14000000   -3660.9629    821.77289    4587.1337    1519.7363    2962.9994    307.83923     5239 
colvars: Synchronizing (emptying the buffer of) trajectory file "Run4_IC_Rg_175A_Es_3kT_Ens05kT.colvars.traj".
colvars: Saving collective variables state to "rest.colvars.state".
colvars: Synchronizing (emptying the buffer of) trajectory file "Run4_IC_Rg_175A_Es_3kT_Ens05kT.colvars.traj".
colvars: Saving collective variables state to "rest.colvars.state".
colvars: Synchronizing (emptying the buffer of) trajectory file "Run4_IC_Rg_175A_Es_3kT_Ens05kT.colvars.traj".
colvars: Saving collective variables state to "rest.colvars.state".
colvars: Synchronizing (emptying the buffer of) trajectory file "Run4_IC_Rg_175A_Es_3kT_Ens05kT.colvars.traj".
colvars: Saving collective variables state to "rest.colvars.state".
colvars: Synchronizing (emptying the buffer of) trajectory file "Run4_IC_Rg_175A_Es_3kT_Ens05kT.colvars.traj".
colvars: Saving collective variables state to "rest.colvars.state".
colvars: Synchronizing (emptying the buffer of) trajectory file "Run4_IC_Rg_175A_Es_3kT_Ens05kT.colvars.traj".
colvars: Saving collective variables state to "rest.colvars.state".
colvars: Synchronizing (emptying the buffer of) trajectory file "Run4_IC_Rg_175A_Es_3kT_Ens05kT.colvars.traj".
colvars: Saving collective variables state to "rest.colvars.state".
colvars: Synchronizing (emptying the buffer of) trajectory file "Run4_IC_Rg_175A_Es_3kT_Ens05kT.colvars.traj".
colvars: Saving collective variables state to "rest.colvars.state".
colvars: Synchronizing (emptying the buffer of) trajectory file "Run4_IC_Rg_175A_Es_3kT_Ens05kT.colvars.traj".
colvars: Saving collective variables state to "rest.colvars.state".
colvars: Synchronizing (emptying the buffer of) trajectory file "Run4_IC_Rg_175A_Es_3kT_Ens05kT.colvars.traj".
colvars: Saving collective variables state to "rest.colvars.state".
colvars: Synchronizing (emptying the buffer of) trajectory file "Run4_IC_Rg_175A_Es_3kT_Ens05kT.colvars.traj".
colvars: Saving collective variables state to "rest.colvars.state".
colvars: Synchronizing (emptying the buffer of) trajectory file "Run4_IC_Rg_175A_Es_3kT_Ens05kT.colvars.traj".
colvars: Saving collective variables state to "rest.colvars.state".
colvars: Synchronizing (emptying the buffer of) trajectory file "Run4_IC_Rg_175A_Es_3kT_Ens05kT.colvars.traj".
colvars: Saving collective variables state to "rest.colvars.state".
colvars: Synchronizing (emptying the buffer of) trajectory file "Run4_IC_Rg_175A_Es_3kT_Ens05kT.colvars.traj".
colvars: Saving collective variables state to "rest.colvars.state".
colvars: Synchronizing (emptying the buffer of) trajectory file "Run4_IC_Rg_175A_Es_3kT_Ens05kT.colvars.traj".
colvars: Saving collective variables state to "rest.colvars.state".
colvars: Synchronizing (emptying the buffer of) trajectory file "Run4_IC_Rg_175A_Es_3kT_Ens05kT.colvars.traj".
colvars: Saving collective variables state to "rest.colvars.state".
colvars: Synchronizing (emptying the buffer of) trajectory file "Run4_IC_Rg_175A_Es_3kT_Ens05kT.colvars.traj".
colvars: Saving collective variables state to "rest.colvars.state".
colvars: Synchronizing (emptying the buffer of) trajectory file "Run4_IC_Rg_175A_Es_3kT_Ens05kT.colvars.traj".
colvars: Saving collective variables state to "rest.colvars.state".
colvars: Synchronizing (emptying the buffer of) trajectory file "Run4_IC_Rg_175A_Es_3kT_Ens05kT.colvars.traj".
colvars: Saving collective variables state to "rest.colvars.state".
colvars: Synchronizing (emptying the buffer of) trajectory file "Run4_IC_Rg_175A_Es_3kT_Ens05kT.colvars.traj".
colvars: Saving collective variables state to "rest.colvars.state".
15000000   -3628.7842    837.78675    4703.7021    1517.5679     2949.003    315.66205     5241 
colvars: Synchronizing (emptying the buffer of) trajectory file "Run4_IC_Rg_175A_Es_3kT_Ens05kT.colvars.traj".
colvars: Saving collective variables state to "rest.colvars.state".
colvars: Synchronizing (emptying the buffer of) trajectory file "Run4_IC_Rg_175A_Es_3kT_Ens05kT.colvars.traj".
colvars: Saving collective variables state to "rest.colvars.state".
colvars: Synchronizing (emptying the buffer of) trajectory file "Run4_IC_Rg_175A_Es_3kT_Ens05kT.colvars.traj".
colvars: Saving collective variables state to "rest.colvars.state".
colvars: Synchronizing (emptying the buffer of) trajectory file "Run4_IC_Rg_175A_Es_3kT_Ens05kT.colvars.traj".
colvars: Saving collective variables state to "rest.colvars.state".
colvars: Synchronizing (emptying the buffer of) trajectory file "Run4_IC_Rg_175A_Es_3kT_Ens05kT.colvars.traj".
colvars: Saving collective variables state to "rest.colvars.state".
colvars: Synchronizing (emptying the buffer of) trajectory file "Run4_IC_Rg_175A_Es_3kT_Ens05kT.colvars.traj".
colvars: Saving collective variables state to "rest.colvars.state".
colvars: Synchronizing (emptying the buffer of) trajectory file "Run4_IC_Rg_175A_Es_3kT_Ens05kT.colvars.traj".
colvars: Saving collective variables state to "rest.colvars.state".
colvars: Synchronizing (emptying the buffer of) trajectory file "Run4_IC_Rg_175A_Es_3kT_Ens05kT.colvars.traj".
colvars: Saving collective variables state to "rest.colvars.state".
colvars: Synchronizing (emptying the buffer of) trajectory file "Run4_IC_Rg_175A_Es_3kT_Ens05kT.colvars.traj".
colvars: Saving collective variables state to "rest.colvars.state".
colvars: Synchronizing (emptying the buffer of) trajectory file "Run4_IC_Rg_175A_Es_3kT_Ens05kT.colvars.traj".
colvars: Saving collective variables state to "rest.colvars.state".
colvars: Synchronizing (emptying the buffer of) trajectory file "Run4_IC_Rg_175A_Es_3kT_Ens05kT.colvars.traj".
colvars: Saving collective variables state to "rest.colvars.state".
colvars: Synchronizing (emptying the buffer of) trajectory file "Run4_IC_Rg_175A_Es_3kT_Ens05kT.colvars.traj".
colvars: Saving collective variables state to "rest.colvars.state".
colvars: Synchronizing (emptying the buffer of) trajectory file "Run4_IC_Rg_175A_Es_3kT_Ens05kT.colvars.traj".
colvars: Saving collective variables state to "rest.colvars.state".
colvars: Synchronizing (emptying the buffer of) trajectory file "Run4_IC_Rg_175A_Es_3kT_Ens05kT.colvars.traj".
colvars: Saving collective variables state to "rest.colvars.state".
colvars: Synchronizing (emptying the buffer of) trajectory file "Run4_IC_Rg_175A_Es_3kT_Ens05kT.colvars.traj".
colvars: Saving collective variables state to "rest.colvars.state".
colvars: Synchronizing (emptying the buffer of) trajectory file "Run4_IC_Rg_175A_Es_3kT_Ens05kT.colvars.traj".
colvars: Saving collective variables state to "rest.colvars.state".
colvars: Synchronizing (emptying the buffer of) trajectory file "Run4_IC_Rg_175A_Es_3kT_Ens05kT.colvars.traj".
colvars: Saving collective variables state to "rest.colvars.state".
colvars: Synchronizing (emptying the buffer of) trajectory file "Run4_IC_Rg_175A_Es_3kT_Ens05kT.colvars.traj".
colvars: Saving collective variables state to "rest.colvars.state".
colvars: Synchronizing (emptying the buffer of) trajectory file "Run4_IC_Rg_175A_Es_3kT_Ens05kT.colvars.traj".
colvars: Saving collective variables state to "rest.colvars.state".
colvars: Synchronizing (emptying the buffer of) trajectory file "Run4_IC_Rg_175A_Es_3kT_Ens05kT.colvars.traj".
colvars: Saving collective variables state to "rest.colvars.state".
16000000   -3662.1655    838.14726    4608.6558    1536.1827      2964.13    309.28356     5242 
colvars: Synchronizing (emptying the buffer of) trajectory file "Run4_IC_Rg_175A_Es_3kT_Ens05kT.colvars.traj".
colvars: Saving collective variables state to "rest.colvars.state".
colvars: Synchronizing (emptying the buffer of) trajectory file "Run4_IC_Rg_175A_Es_3kT_Ens05kT.colvars.traj".
colvars: Saving collective variables state to "rest.colvars.state".
colvars: Synchronizing (emptying the buffer of) trajectory file "Run4_IC_Rg_175A_Es_3kT_Ens05kT.colvars.traj".
colvars: Saving collective variables state to "rest.colvars.state".
colvars: Synchronizing (emptying the buffer of) trajectory file "Run4_IC_Rg_175A_Es_3kT_Ens05kT.colvars.traj".
colvars: Saving collective variables state to "rest.colvars.state".
colvars: Synchronizing (emptying the buffer of) trajectory file "Run4_IC_Rg_175A_Es_3kT_Ens05kT.colvars.traj".
colvars: Saving collective variables state to "rest.colvars.state".
colvars: Synchronizing (emptying the buffer of) trajectory file "Run4_IC_Rg_175A_Es_3kT_Ens05kT.colvars.traj".
colvars: Saving collective variables state to "rest.colvars.state".
colvars: Synchronizing (emptying the buffer of) trajectory file "Run4_IC_Rg_175A_Es_3kT_Ens05kT.colvars.traj".
colvars: Saving collective variables state to "rest.colvars.state".
colvars: Synchronizing (emptying the buffer of) trajectory file "Run4_IC_Rg_175A_Es_3kT_Ens05kT.colvars.traj".
colvars: Saving collective variables state to "rest.colvars.state".
colvars: Synchronizing (emptying the buffer of) trajectory file "Run4_IC_Rg_175A_Es_3kT_Ens05kT.colvars.traj".
colvars: Saving collective variables state to "rest.colvars.state".
colvars: Synchronizing (emptying the buffer of) trajectory file "Run4_IC_Rg_175A_Es_3kT_Ens05kT.colvars.traj".
colvars: Saving collective variables state to "rest.colvars.state".
colvars: Synchronizing (emptying the buffer of) trajectory file "Run4_IC_Rg_175A_Es_3kT_Ens05kT.colvars.traj".
colvars: Saving collective variables state to "rest.colvars.state".
colvars: Synchronizing (emptying the buffer of) trajectory file "Run4_IC_Rg_175A_Es_3kT_Ens05kT.colvars.traj".
colvars: Saving collective variables state to "rest.colvars.state".
colvars: Synchronizing (emptying the buffer of) trajectory file "Run4_IC_Rg_175A_Es_3kT_Ens05kT.colvars.traj".
colvars: Saving collective variables state to "rest.colvars.state".
colvars: Synchronizing (emptying the buffer of) trajectory file "Run4_IC_Rg_175A_Es_3kT_Ens05kT.colvars.traj".
colvars: Saving collective variables state to "rest.colvars.state".
colvars: Synchronizing (emptying the buffer of) trajectory file "Run4_IC_Rg_175A_Es_3kT_Ens05kT.colvars.traj".
colvars: Saving collective variables state to "rest.colvars.state".
colvars: Synchronizing (emptying the buffer of) trajectory file "Run4_IC_Rg_175A_Es_3kT_Ens05kT.colvars.traj".
colvars: Saving collective variables state to "rest.colvars.state".
colvars: Synchronizing (emptying the buffer of) trajectory file "Run4_IC_Rg_175A_Es_3kT_Ens05kT.colvars.traj".
colvars: Saving collective variables state to "rest.colvars.state".
colvars: Synchronizing (emptying the buffer of) trajectory file "Run4_IC_Rg_175A_Es_3kT_Ens05kT.colvars.traj".
colvars: Saving collective variables state to "rest.colvars.state".
colvars: Synchronizing (emptying the buffer of) trajectory file "Run4_IC_Rg_175A_Es_3kT_Ens05kT.colvars.traj".
colvars: Saving collective variables state to "rest.colvars.state".
colvars: Synchronizing (emptying the buffer of) trajectory file "Run4_IC_Rg_175A_Es_3kT_Ens05kT.colvars.traj".
colvars: Saving collective variables state to "rest.colvars.state".
17000000   -3682.6293    783.79413    4628.8228    1576.2782    2890.1452    310.63696     5251 
colvars: Synchronizing (emptying the buffer of) trajectory file "Run4_IC_Rg_175A_Es_3kT_Ens05kT.colvars.traj".
colvars: Saving collective variables state to "rest.colvars.state".
colvars: Synchronizing (emptying the buffer of) trajectory file "Run4_IC_Rg_175A_Es_3kT_Ens05kT.colvars.traj".
colvars: Saving collective variables state to "rest.colvars.state".
colvars: Synchronizing (emptying the buffer of) trajectory file "Run4_IC_Rg_175A_Es_3kT_Ens05kT.colvars.traj".
colvars: Saving collective variables state to "rest.colvars.state".
colvars: Synchronizing (emptying the buffer of) trajectory file "Run4_IC_Rg_175A_Es_3kT_Ens05kT.colvars.traj".
colvars: Saving collective variables state to "rest.colvars.state".
colvars: Synchronizing (emptying the buffer of) trajectory file "Run4_IC_Rg_175A_Es_3kT_Ens05kT.colvars.traj".
colvars: Saving collective variables state to "rest.colvars.state".
colvars: Synchronizing (emptying the buffer of) trajectory file "Run4_IC_Rg_175A_Es_3kT_Ens05kT.colvars.traj".
colvars: Saving collective variables state to "rest.colvars.state".
colvars: Synchronizing (emptying the buffer of) trajectory file "Run4_IC_Rg_175A_Es_3kT_Ens05kT.colvars.traj".
colvars: Saving collective variables state to "rest.colvars.state".
colvars: Synchronizing (emptying the buffer of) trajectory file "Run4_IC_Rg_175A_Es_3kT_Ens05kT.colvars.traj".
colvars: Saving collective variables state to "rest.colvars.state".
colvars: Synchronizing (emptying the buffer of) trajectory file "Run4_IC_Rg_175A_Es_3kT_Ens05kT.colvars.traj".
colvars: Saving collective variables state to "rest.colvars.state".
colvars: Synchronizing (emptying the buffer of) trajectory file "Run4_IC_Rg_175A_Es_3kT_Ens05kT.colvars.traj".
colvars: Saving collective variables state to "rest.colvars.state".
colvars: Synchronizing (emptying the buffer of) trajectory file "Run4_IC_Rg_175A_Es_3kT_Ens05kT.colvars.traj".
colvars: Saving collective variables state to "rest.colvars.state".
colvars: Synchronizing (emptying the buffer of) trajectory file "Run4_IC_Rg_175A_Es_3kT_Ens05kT.colvars.traj".
colvars: Saving collective variables state to "rest.colvars.state".
colvars: Synchronizing (emptying the buffer of) trajectory file "Run4_IC_Rg_175A_Es_3kT_Ens05kT.colvars.traj".
colvars: Saving collective variables state to "rest.colvars.state".
colvars: Synchronizing (emptying the buffer of) trajectory file "Run4_IC_Rg_175A_Es_3kT_Ens05kT.colvars.traj".
colvars: Saving collective variables state to "rest.colvars.state".
colvars: Synchronizing (emptying the buffer of) trajectory file "Run4_IC_Rg_175A_Es_3kT_Ens05kT.colvars.traj".
colvars: Saving collective variables state to "rest.colvars.state".
colvars: Synchronizing (emptying the buffer of) trajectory file "Run4_IC_Rg_175A_Es_3kT_Ens05kT.colvars.traj".
colvars: Saving collective variables state to "rest.colvars.state".
colvars: Synchronizing (emptying the buffer of) trajectory file "Run4_IC_Rg_175A_Es_3kT_Ens05kT.colvars.traj".
colvars: Saving collective variables state to "rest.colvars.state".
colvars: Synchronizing (emptying the buffer of) trajectory file "Run4_IC_Rg_175A_Es_3kT_Ens05kT.colvars.traj".
colvars: Saving collective variables state to "rest.colvars.state".
colvars: Synchronizing (emptying the buffer of) trajectory file "Run4_IC_Rg_175A_Es_3kT_Ens05kT.colvars.traj".
colvars: Saving collective variables state to "rest.colvars.state".
colvars: Synchronizing (emptying the buffer of) trajectory file "Run4_IC_Rg_175A_Es_3kT_Ens05kT.colvars.traj".
colvars: Saving collective variables state to "rest.colvars.state".
18000000   -3597.7619    863.92458    4610.5411    1512.0709    2949.6156    309.41008     5244 
colvars: Synchronizing (emptying the buffer of) trajectory file "Run4_IC_Rg_175A_Es_3kT_Ens05kT.colvars.traj".
colvars: Saving collective variables state to "rest.colvars.state".
colvars: Synchronizing (emptying the buffer of) trajectory file "Run4_IC_Rg_175A_Es_3kT_Ens05kT.colvars.traj".
colvars: Saving collective variables state to "rest.colvars.state".
colvars: Synchronizing (emptying the buffer of) trajectory file "Run4_IC_Rg_175A_Es_3kT_Ens05kT.colvars.traj".
colvars: Saving collective variables state to "rest.colvars.state".
colvars: Synchronizing (emptying the buffer of) trajectory file "Run4_IC_Rg_175A_Es_3kT_Ens05kT.colvars.traj".
colvars: Saving collective variables state to "rest.colvars.state".
[...]
195000000   -3761.1132    671.90029    4565.6424    1581.2299    2851.7836    306.39696     5257 
colvars: Synchronizing (emptying the buffer of) trajectory file "Run4_IC_Rg_175A_Es_3kT_Ens05kT.colvars.traj".
colvars: Saving collective variables state to "rest.colvars.state".
colvars: Synchronizing (emptying the buffer of) trajectory file "Run4_IC_Rg_175A_Es_3kT_Ens05kT.colvars.traj".
colvars: Saving collective variables state to "rest.colvars.state".
colvars: Synchronizing (emptying the buffer of) trajectory file "Run4_IC_Rg_175A_Es_3kT_Ens05kT.colvars.traj".
colvars: Saving collective variables state to "rest.colvars.state".
colvars: Synchronizing (emptying the buffer of) trajectory file "Run4_IC_Rg_175A_Es_3kT_Ens05kT.colvars.traj".
colvars: Saving collective variables state to "rest.colvars.state".
colvars: Synchronizing (emptying the buffer of) trajectory file "Run4_IC_Rg_175A_Es_3kT_Ens05kT.colvars.traj".
colvars: Saving collective variables state to "rest.colvars.state".
colvars: Synchronizing (emptying the buffer of) trajectory file "Run4_IC_Rg_175A_Es_3kT_Ens05kT.colvars.traj".
colvars: Saving collective variables state to "rest.colvars.state".
colvars: Synchronizing (emptying the buffer of) trajectory file "Run4_IC_Rg_175A_Es_3kT_Ens05kT.colvars.traj".
colvars: Saving collective variables state to "rest.colvars.state".
colvars: Synchronizing (emptying the buffer of) trajectory file "Run4_IC_Rg_175A_Es_3kT_Ens05kT.colvars.traj".
colvars: Saving collective variables state to "rest.colvars.state".
colvars: Synchronizing (emptying the buffer of) trajectory file "Run4_IC_Rg_175A_Es_3kT_Ens05kT.colvars.traj".
colvars: Saving collective variables state to "rest.colvars.state".
colvars: Synchronizing (emptying the buffer of) trajectory file "Run4_IC_Rg_175A_Es_3kT_Ens05kT.colvars.traj".
colvars: Saving collective variables state to "rest.colvars.state".
colvars: Synchronizing (emptying the buffer of) trajectory file "Run4_IC_Rg_175A_Es_3kT_Ens05kT.colvars.traj".
colvars: Saving collective variables state to "rest.colvars.state".
colvars: Synchronizing (emptying the buffer of) trajectory file "Run4_IC_Rg_175A_Es_3kT_Ens05kT.colvars.traj".
colvars: Saving collective variables state to "rest.colvars.state".
colvars: Synchronizing (emptying the buffer of) trajectory file "Run4_IC_Rg_175A_Es_3kT_Ens05kT.colvars.traj".
colvars: Saving collective variables state to "rest.colvars.state".
colvars: Synchronizing (emptying the buffer of) trajectory file "Run4_IC_Rg_175A_Es_3kT_Ens05kT.colvars.traj".
colvars: Saving collective variables state to "rest.colvars.state".
colvars: Synchronizing (emptying the buffer of) trajectory file "Run4_IC_Rg_175A_Es_3kT_Ens05kT.colvars.traj".
colvars: Saving collective variables state to "rest.colvars.state".
colvars: Synchronizing (emptying the buffer of) trajectory file "Run4_IC_Rg_175A_Es_3kT_Ens05kT.colvars.traj".
colvars: Saving collective variables state to "rest.colvars.state".
colvars: Synchronizing (emptying the buffer of) trajectory file "Run4_IC_Rg_175A_Es_3kT_Ens05kT.colvars.traj".
colvars: Saving collective variables state to "rest.colvars.state".
colvars: Synchronizing (emptying the buffer of) trajectory file "Run4_IC_Rg_175A_Es_3kT_Ens05kT.colvars.traj".
colvars: Saving collective variables state to "rest.colvars.state".
colvars: Synchronizing (emptying the buffer of) trajectory file "Run4_IC_Rg_175A_Es_3kT_Ens05kT.colvars.traj".
colvars: Saving collective variables state to "rest.colvars.state".
colvars: Synchronizing (emptying the buffer of) trajectory file "Run4_IC_Rg_175A_Es_3kT_Ens05kT.colvars.traj".
colvars: Saving collective variables state to "rest.colvars.state".
196000000   -3771.8091    657.52593    4660.8865    1556.4939    2872.8411    312.78872     5263 
colvars: Synchronizing (emptying the buffer of) trajectory file "Run4_IC_Rg_175A_Es_3kT_Ens05kT.colvars.traj".
colvars: Saving collective variables state to "rest.colvars.state".
colvars: Synchronizing (emptying the buffer of) trajectory file "Run4_IC_Rg_175A_Es_3kT_Ens05kT.colvars.traj".
colvars: Saving collective variables state to "rest.colvars.state".
colvars: Synchronizing (emptying the buffer of) trajectory file "Run4_IC_Rg_175A_Es_3kT_Ens05kT.colvars.traj".
colvars: Saving collective variables state to "rest.colvars.state".
colvars: Synchronizing (emptying the buffer of) trajectory file "Run4_IC_Rg_175A_Es_3kT_Ens05kT.colvars.traj".
colvars: Saving collective variables state to "rest.colvars.state".
colvars: Synchronizing (emptying the buffer of) trajectory file "Run4_IC_Rg_175A_Es_3kT_Ens05kT.colvars.traj".
colvars: Saving collective variables state to "rest.colvars.state".
colvars: Synchronizing (emptying the buffer of) trajectory file "Run4_IC_Rg_175A_Es_3kT_Ens05kT.colvars.traj".
colvars: Saving collective variables state to "rest.colvars.state".
colvars: Synchronizing (emptying the buffer of) trajectory file "Run4_IC_Rg_175A_Es_3kT_Ens05kT.colvars.traj".
colvars: Saving collective variables state to "rest.colvars.state".
colvars: Synchronizing (emptying the buffer of) trajectory file "Run4_IC_Rg_175A_Es_3kT_Ens05kT.colvars.traj".
colvars: Saving collective variables state to "rest.colvars.state".
colvars: Synchronizing (emptying the buffer of) trajectory file "Run4_IC_Rg_175A_Es_3kT_Ens05kT.colvars.traj".
colvars: Saving collective variables state to "rest.colvars.state".
colvars: Synchronizing (emptying the buffer of) trajectory file "Run4_IC_Rg_175A_Es_3kT_Ens05kT.colvars.traj".
colvars: Saving collective variables state to "rest.colvars.state".
colvars: Synchronizing (emptying the buffer of) trajectory file "Run4_IC_Rg_175A_Es_3kT_Ens05kT.colvars.traj".
colvars: Saving collective variables state to "rest.colvars.state".
colvars: Synchronizing (emptying the buffer of) trajectory file "Run4_IC_Rg_175A_Es_3kT_Ens05kT.colvars.traj".
colvars: Saving collective variables state to "rest.colvars.state".
colvars: Synchronizing (emptying the buffer of) trajectory file "Run4_IC_Rg_175A_Es_3kT_Ens05kT.colvars.traj".
colvars: Saving collective variables state to "rest.colvars.state".
colvars: Synchronizing (emptying the buffer of) trajectory file "Run4_IC_Rg_175A_Es_3kT_Ens05kT.colvars.traj".
colvars: Saving collective variables state to "rest.colvars.state".
colvars: Synchronizing (emptying the buffer of) trajectory file "Run4_IC_Rg_175A_Es_3kT_Ens05kT.colvars.traj".
colvars: Saving collective variables state to "rest.colvars.state".
colvars: Synchronizing (emptying the buffer of) trajectory file "Run4_IC_Rg_175A_Es_3kT_Ens05kT.colvars.traj".
colvars: Saving collective variables state to "rest.colvars.state".
colvars: Synchronizing (emptying the buffer of) trajectory file "Run4_IC_Rg_175A_Es_3kT_Ens05kT.colvars.traj".
colvars: Saving collective variables state to "rest.colvars.state".
colvars: Synchronizing (emptying the buffer of) trajectory file "Run4_IC_Rg_175A_Es_3kT_Ens05kT.colvars.traj".
colvars: Saving collective variables state to "rest.colvars.state".
colvars: Synchronizing (emptying the buffer of) trajectory file "Run4_IC_Rg_175A_Es_3kT_Ens05kT.colvars.traj".
colvars: Saving collective variables state to "rest.colvars.state".
colvars: Synchronizing (emptying the buffer of) trajectory file "Run4_IC_Rg_175A_Es_3kT_Ens05kT.colvars.traj".
colvars: Saving collective variables state to "rest.colvars.state".
197000000   -3772.4082    646.59555    4570.8512    1564.8037       2854.2    306.74652     5255 
colvars: Synchronizing (emptying the buffer of) trajectory file "Run4_IC_Rg_175A_Es_3kT_Ens05kT.colvars.traj".
colvars: Saving collective variables state to "rest.colvars.state".
colvars: Synchronizing (emptying the buffer of) trajectory file "Run4_IC_Rg_175A_Es_3kT_Ens05kT.colvars.traj".
colvars: Saving collective variables state to "rest.colvars.state".
colvars: Synchronizing (emptying the buffer of) trajectory file "Run4_IC_Rg_175A_Es_3kT_Ens05kT.colvars.traj".
colvars: Saving collective variables state to "rest.colvars.state".
colvars: Synchronizing (emptying the buffer of) trajectory file "Run4_IC_Rg_175A_Es_3kT_Ens05kT.colvars.traj".
colvars: Saving collective variables state to "rest.colvars.state".
colvars: Synchronizing (emptying the buffer of) trajectory file "Run4_IC_Rg_175A_Es_3kT_Ens05kT.colvars.traj".
colvars: Saving collective variables state to "rest.colvars.state".
colvars: Synchronizing (emptying the buffer of) trajectory file "Run4_IC_Rg_175A_Es_3kT_Ens05kT.colvars.traj".
colvars: Saving collective variables state to "rest.colvars.state".
colvars: Synchronizing (emptying the buffer of) trajectory file "Run4_IC_Rg_175A_Es_3kT_Ens05kT.colvars.traj".
colvars: Saving collective variables state to "rest.colvars.state".
colvars: Synchronizing (emptying the buffer of) trajectory file "Run4_IC_Rg_175A_Es_3kT_Ens05kT.colvars.traj".
colvars: Saving collective variables state to "rest.colvars.state".
colvars: Synchronizing (emptying the buffer of) trajectory file "Run4_IC_Rg_175A_Es_3kT_Ens05kT.colvars.traj".
colvars: Saving collective variables state to "rest.colvars.state".
colvars: Synchronizing (emptying the buffer of) trajectory file "Run4_IC_Rg_175A_Es_3kT_Ens05kT.colvars.traj".
colvars: Saving collective variables state to "rest.colvars.state".
colvars: Synchronizing (emptying the buffer of) trajectory file "Run4_IC_Rg_175A_Es_3kT_Ens05kT.colvars.traj".
colvars: Saving collective variables state to "rest.colvars.state".
colvars: Synchronizing (emptying the buffer of) trajectory file "Run4_IC_Rg_175A_Es_3kT_Ens05kT.colvars.traj".
colvars: Saving collective variables state to "rest.colvars.state".
colvars: Synchronizing (emptying the buffer of) trajectory file "Run4_IC_Rg_175A_Es_3kT_Ens05kT.colvars.traj".
colvars: Saving collective variables state to "rest.colvars.state".
colvars: Synchronizing (emptying the buffer of) trajectory file "Run4_IC_Rg_175A_Es_3kT_Ens05kT.colvars.traj".
colvars: Saving collective variables state to "rest.colvars.state".
colvars: Synchronizing (emptying the buffer of) trajectory file "Run4_IC_Rg_175A_Es_3kT_Ens05kT.colvars.traj".
colvars: Saving collective variables state to "rest.colvars.state".
colvars: Synchronizing (emptying the buffer of) trajectory file "Run4_IC_Rg_175A_Es_3kT_Ens05kT.colvars.traj".
colvars: Saving collective variables state to "rest.colvars.state".
colvars: Synchronizing (emptying the buffer of) trajectory file "Run4_IC_Rg_175A_Es_3kT_Ens05kT.colvars.traj".
colvars: Saving collective variables state to "rest.colvars.state".
colvars: Synchronizing (emptying the buffer of) trajectory file "Run4_IC_Rg_175A_Es_3kT_Ens05kT.colvars.traj".
colvars: Saving collective variables state to "rest.colvars.state".
colvars: Synchronizing (emptying the buffer of) trajectory file "Run4_IC_Rg_175A_Es_3kT_Ens05kT.colvars.traj".
colvars: Saving collective variables state to "rest.colvars.state".
colvars: Synchronizing (emptying the buffer of) trajectory file "Run4_IC_Rg_175A_Es_3kT_Ens05kT.colvars.traj".
colvars: Saving collective variables state to "rest.colvars.state".
198000000   -3786.8179    646.09113    4765.0726    1533.3311     2899.578    319.78058     5258 
colvars: Synchronizing (emptying the buffer of) trajectory file "Run4_IC_Rg_175A_Es_3kT_Ens05kT.colvars.traj".
colvars: Saving collective variables state to "rest.colvars.state".
colvars: Synchronizing (emptying the buffer of) trajectory file "Run4_IC_Rg_175A_Es_3kT_Ens05kT.colvars.traj".
colvars: Saving collective variables state to "rest.colvars.state".
colvars: Synchronizing (emptying the buffer of) trajectory file "Run4_IC_Rg_175A_Es_3kT_Ens05kT.colvars.traj".
colvars: Saving collective variables state to "rest.colvars.state".
colvars: Synchronizing (emptying the buffer of) trajectory file "Run4_IC_Rg_175A_Es_3kT_Ens05kT.colvars.traj".
colvars: Saving collective variables state to "rest.colvars.state".
colvars: Synchronizing (emptying the buffer of) trajectory file "Run4_IC_Rg_175A_Es_3kT_Ens05kT.colvars.traj".
colvars: Saving collective variables state to "rest.colvars.state".
colvars: Synchronizing (emptying the buffer of) trajectory file "Run4_IC_Rg_175A_Es_3kT_Ens05kT.colvars.traj".
colvars: Saving collective variables state to "rest.colvars.state".
colvars: Synchronizing (emptying the buffer of) trajectory file "Run4_IC_Rg_175A_Es_3kT_Ens05kT.colvars.traj".
colvars: Saving collective variables state to "rest.colvars.state".
colvars: Synchronizing (emptying the buffer of) trajectory file "Run4_IC_Rg_175A_Es_3kT_Ens05kT.colvars.traj".
colvars: Saving collective variables state to "rest.colvars.state".
colvars: Synchronizing (emptying the buffer of) trajectory file "Run4_IC_Rg_175A_Es_3kT_Ens05kT.colvars.traj".
colvars: Saving collective variables state to "rest.colvars.state".
colvars: Synchronizing (emptying the buffer of) trajectory file "Run4_IC_Rg_175A_Es_3kT_Ens05kT.colvars.traj".
colvars: Saving collective variables state to "rest.colvars.state".
colvars: Synchronizing (emptying the buffer of) trajectory file "Run4_IC_Rg_175A_Es_3kT_Ens05kT.colvars.traj".
colvars: Saving collective variables state to "rest.colvars.state".
colvars: Synchronizing (emptying the buffer of) trajectory file "Run4_IC_Rg_175A_Es_3kT_Ens05kT.colvars.traj".
colvars: Saving collective variables state to "rest.colvars.state".
colvars: Synchronizing (emptying the buffer of) trajectory file "Run4_IC_Rg_175A_Es_3kT_Ens05kT.colvars.traj".
colvars: Saving collective variables state to "rest.colvars.state".
colvars: Synchronizing (emptying the buffer of) trajectory file "Run4_IC_Rg_175A_Es_3kT_Ens05kT.colvars.traj".
colvars: Saving collective variables state to "rest.colvars.state".
colvars: Synchronizing (emptying the buffer of) trajectory file "Run4_IC_Rg_175A_Es_3kT_Ens05kT.colvars.traj".
colvars: Saving collective variables state to "rest.colvars.state".
colvars: Synchronizing (emptying the buffer of) trajectory file "Run4_IC_Rg_175A_Es_3kT_Ens05kT.colvars.traj".
colvars: Saving collective variables state to "rest.colvars.state".
colvars: Synchronizing (emptying the buffer of) trajectory file "Run4_IC_Rg_175A_Es_3kT_Ens05kT.colvars.traj".
colvars: Saving collective variables state to "rest.colvars.state".
colvars: Synchronizing (emptying the buffer of) trajectory file "Run4_IC_Rg_175A_Es_3kT_Ens05kT.colvars.traj".
colvars: Saving collective variables state to "rest.colvars.state".
colvars: Synchronizing (emptying the buffer of) trajectory file "Run4_IC_Rg_175A_Es_3kT_Ens05kT.colvars.traj".
colvars: Saving collective variables state to "rest.colvars.state".
colvars: Synchronizing (emptying the buffer of) trajectory file "Run4_IC_Rg_175A_Es_3kT_Ens05kT.colvars.traj".
colvars: Saving collective variables state to "rest.colvars.state".
199000000    -3823.519    585.58976    4545.8724    1536.9815    2872.1272    305.07021     5262 
colvars: Synchronizing (emptying the buffer of) trajectory file "Run4_IC_Rg_175A_Es_3kT_Ens05kT.colvars.traj".
colvars: Saving collective variables state to "rest.colvars.state".
colvars: Synchronizing (emptying the buffer of) trajectory file "Run4_IC_Rg_175A_Es_3kT_Ens05kT.colvars.traj".
colvars: Saving collective variables state to "rest.colvars.state".
colvars: Synchronizing (emptying the buffer of) trajectory file "Run4_IC_Rg_175A_Es_3kT_Ens05kT.colvars.traj".
colvars: Saving collective variables state to "rest.colvars.state".
colvars: Synchronizing (emptying the buffer of) trajectory file "Run4_IC_Rg_175A_Es_3kT_Ens05kT.colvars.traj".
colvars: Saving collective variables state to "rest.colvars.state".
colvars: Synchronizing (emptying the buffer of) trajectory file "Run4_IC_Rg_175A_Es_3kT_Ens05kT.colvars.traj".
colvars: Saving collective variables state to "rest.colvars.state".
colvars: Synchronizing (emptying the buffer of) trajectory file "Run4_IC_Rg_175A_Es_3kT_Ens05kT.colvars.traj".
colvars: Saving collective variables state to "rest.colvars.state".
colvars: Synchronizing (emptying the buffer of) trajectory file "Run4_IC_Rg_175A_Es_3kT_Ens05kT.colvars.traj".
colvars: Saving collective variables state to "rest.colvars.state".
colvars: Synchronizing (emptying the buffer of) trajectory file "Run4_IC_Rg_175A_Es_3kT_Ens05kT.colvars.traj".
colvars: Saving collective variables state to "rest.colvars.state".
colvars: Synchronizing (emptying the buffer of) trajectory file "Run4_IC_Rg_175A_Es_3kT_Ens05kT.colvars.traj".
colvars: Saving collective variables state to "rest.colvars.state".
colvars: Synchronizing (emptying the buffer of) trajectory file "Run4_IC_Rg_175A_Es_3kT_Ens05kT.colvars.traj".
colvars: Saving collective variables state to "rest.colvars.state".
colvars: Synchronizing (emptying the buffer of) trajectory file "Run4_IC_Rg_175A_Es_3kT_Ens05kT.colvars.traj".
colvars: Saving collective variables state to "rest.colvars.state".
colvars: Synchronizing (emptying the buffer of) trajectory file "Run4_IC_Rg_175A_Es_3kT_Ens05kT.colvars.traj".
colvars: Saving collective variables state to "rest.colvars.state".
colvars: Synchronizing (emptying the buffer of) trajectory file "Run4_IC_Rg_175A_Es_3kT_Ens05kT.colvars.traj".
colvars: Saving collective variables state to "rest.colvars.state".
colvars: Synchronizing (emptying the buffer of) trajectory file "Run4_IC_Rg_175A_Es_3kT_Ens05kT.colvars.traj".
colvars: Saving collective variables state to "rest.colvars.state".
colvars: Synchronizing (emptying the buffer of) trajectory file "Run4_IC_Rg_175A_Es_3kT_Ens05kT.colvars.traj".
colvars: Saving collective variables state to "rest.colvars.state".
colvars: Synchronizing (emptying the buffer of) trajectory file "Run4_IC_Rg_175A_Es_3kT_Ens05kT.colvars.traj".
colvars: Saving collective variables state to "rest.colvars.state".
colvars: Synchronizing (emptying the buffer of) trajectory file "Run4_IC_Rg_175A_Es_3kT_Ens05kT.colvars.traj".
colvars: Saving collective variables state to "rest.colvars.state".
colvars: Synchronizing (emptying the buffer of) trajectory file "Run4_IC_Rg_175A_Es_3kT_Ens05kT.colvars.traj".
colvars: Saving collective variables state to "rest.colvars.state".
colvars: Synchronizing (emptying the buffer of) trajectory file "Run4_IC_Rg_175A_Es_3kT_Ens05kT.colvars.traj".
colvars: Saving collective variables state to "rest.colvars.state".
colvars: Synchronizing (emptying the buffer of) trajectory file "Run4_IC_Rg_175A_Es_3kT_Ens05kT.colvars.traj".
colvars: Saving collective variables state to "rest.colvars.state".
200000000   -3752.5703    728.81096    4621.2295    1580.8645    2900.5168    310.12737     5251 
colvars: Saving collective variables state to "Run4_IC_Rg_175A_Es_3kT_Ens05kT.colvars.state".
Loop time of 72049.5 on 8 procs for 200000000 steps with 5000 atoms

Performance: 5995.880 ns/day, 0.004 hours/ns, 2775.870 timesteps/s
99.7% CPU use with 8 MPI tasks x no OpenMP threads

MPI task timing breakdown:
Section |  min time  |  avg time  |  max time  |%varavg| %total
---------------------------------------------------------------
Pair    | 23294      | 25207      | 27390      | 703.5 | 34.99
Bond    | 3885.9     | 3952.6     | 4013.3     |  68.1 |  5.49
Neigh   | 8797.8     | 8894.7     | 8977.5     |  66.1 | 12.35
Comm    | 10376      | 13679      | 16278      |1422.0 | 18.99
Output  | 1.1871     | 1.1875     | 1.1879     |   0.0 |  0.00
Modify  | 17921      | 18177      | 18608      | 183.4 | 25.23
Other   |            | 2137       |            |       |  2.97

Nlocal:    625 ave 636 max 608 min
Histogram: 1 1 0 0 0 1 1 1 1 2
Nghost:    773.375 ave 845 max 689 min
Histogram: 1 0 1 0 2 0 2 0 0 2
Neighs:    12303 ave 13589 max 11131 min
Histogram: 2 0 1 1 0 0 2 1 0 1

Total # of neighbors = 98424
Ave neighs/atom = 19.6848
Ave special neighs/atom = 7.3292
Neighbor list builds = 10488888
Dangerous builds = 0
write_restart final_state_${fName}.restart
write_restart final_state_Run4_IC_Rg_175A_Es_3kT_Ens05kT.restart
colvars: Resetting the Collective Variables module.

Please see the log.cite file for references relevant to this simulation

Total wall time: 20:00:52
