
units           real
boundary p p p
atom_style      full

neighbor 1.9 bin
neigh_modify every 1 delay 1 check yes

read_data IC_N200_Rg_175A.data extra/special/per/atom 10
  orthogonal box = (-250 -250 -250) to (250 250 250)
  2 by 2 by 2 MPI processor grid
  reading atoms ...
  5000 atoms
  scanning bonds ...
  11 = max bonds/atom
  scanning angles ...
  1 = max angles/atom
  reading bonds ...
  4800 bonds
  reading angles ...
  4600 angles
  2 = max # of 1-2 neighbors
  2 = max # of 1-3 neighbors
  4 = max # of 1-4 neighbors
  16 = max # of special neighbors
  special bonds CPU = 0.0325541 secs
  read_data CPU = 0.0875179 secs

angle_style  cosine
angle_coeff   *  2  # K (energy unit)

bond_style      harmonic
# bond-type, K (energy/distance^2), R0 (distance)
bond_coeff   1   3   10
bond_coeff   2   3   10
bond_coeff   3   1.8   11.22

pair_style lj/cut 25
# atom-typ1, atom-typ2, energy-well, sigma (bead-diameter), cut-off (distance)
pair_coeff  * * 0.3 10 25

special_bonds lj  1 1 1 angle no
  2 = max # of 1-2 neighbors
  2 = max # of 1-3 neighbors
  4 = max # of 1-4 neighbors
  16 = max # of special neighbors
  special bonds CPU = 0.000299258 secs

minimize 1.0e-4 1.0e-6 20000 20000 # force_tol, energy_tol, maxiter, maxeval
WARNING: Using 'neigh_modify every 1 delay 0 check yes' setting during minimization (../min.cpp:168)
Neighbor list info ...
  update every 1 steps, delay 0 steps, check yes
  max neighbors/atom: 2000, page size: 100000
  master list distance cutoff = 26.9
  ghost atom cutoff = 26.9
  binsize = 13.45, bins = 38 38 38
  1 neighbor lists, perpetual/occasional/extra = 1 0 0
  (1) pair lj/cut, perpetual
      attributes: half, newton on
      pair build: half/bin/newton
      stencil: half/bin/3d/newton
      bin: standard
Per MPI rank memory allocation (min/avg/max) = 9.435 | 9.491 | 9.812 Mbytes
Step Temp E_pair E_mol TotEng Press 
       0            0     23223661       360000     23583661    51500.021 
    2716            0   -3008.2836    1917.3655   -1090.9181  -0.21495914 
Loop time of 0.815847 on 8 procs for 2716 steps with 5000 atoms

99.7% CPU use with 8 MPI tasks x no OpenMP threads

Minimization stats:
  Stopping criterion = energy tolerance
  Energy initial, next-to-last, final = 
         23583660.6342     -1090.81202443     -1090.91805571
  Force two-norm initial, final = 234700 1.18135
  Force max component initial, final = 11733 0.255402
  Final line search alpha, max atom move = 0.247917 0.0633185
  Iterations, force evaluations = 2716 3368

MPI task timing breakdown:
Section |  min time  |  avg time  |  max time  |%varavg| %total
---------------------------------------------------------------
Pair    | 0.206      | 0.28188    | 0.40814    |  10.7 | 34.55
Bond    | 0.06714    | 0.079322   | 0.09761    |   3.0 |  9.72
Neigh   | 0.093793   | 0.094508   | 0.094972   |   0.1 | 11.58
Comm    | 0.11532    | 0.24414    | 0.3259     |  12.2 | 29.92
Output  | 0          | 0          | 0          |   0.0 |  0.00
Modify  | 0          | 0          | 0          |   0.0 |  0.00
Other   |            | 0.116      |            |       | 14.22

Nlocal:    625 ave 773 max 535 min
Histogram: 2 0 1 2 1 1 0 0 0 1
Nghost:    362.75 ave 447 max 318 min
Histogram: 3 2 0 0 0 0 1 1 0 1
Neighs:    5198.25 ave 7858 max 3700 min
Histogram: 1 2 1 2 0 1 0 0 0 1

Total # of neighbors = 41586
Ave neighs/atom = 8.3172
Ave special neighs/atom = 5.52
Neighbor list builds = 201
Dangerous builds = 0

# further equilibriate the system before bond formation takes place
fix fxlan all langevin $T $T 500 ${seed}
fix fxlan all langevin 310 $T 500 ${seed}
fix fxlan all langevin 310 310 500 ${seed}
fix fxlan all langevin 310 310 500 832667
fix fxnve all nve
timestep 1
run 10000
Per MPI rank memory allocation (min/avg/max) = 8.318 | 8.368 | 8.687 Mbytes
Step Temp E_pair E_mol TotEng Press 
    2716            0   -3008.2836    1917.3655   -1090.9181  -0.21495914 
   12716    306.76158   -2367.7602    3917.1963    6120.5117   -2.3581301 
Loop time of 1.77168 on 8 procs for 10000 steps with 5000 atoms

Performance: 487.674 ns/day, 0.049 hours/ns, 5644.373 timesteps/s
99.7% CPU use with 8 MPI tasks x no OpenMP threads

MPI task timing breakdown:
Section |  min time  |  avg time  |  max time  |%varavg| %total
---------------------------------------------------------------
Pair    | 0.37901    | 0.53602    | 0.81553    |  17.3 | 30.25
Bond    | 0.1635     | 0.19223    | 0.23942    |   4.8 | 10.85
Neigh   | 0.0095713  | 0.0096298  | 0.0096946  |   0.0 |  0.54
Comm    | 0.3125     | 0.58457    | 0.75127    |  16.9 | 33.00
Output  | 4.4778e-05 | 5.4808e-05 | 5.9302e-05 |   0.0 |  0.00
Modify  | 0.24944    | 0.29372    | 0.36098    |   5.8 | 16.58
Other   |            | 0.1555     |            |       |  8.77

Nlocal:    625 ave 771 max 533 min
Histogram: 2 0 0 2 2 1 0 0 0 1
Nghost:    363.625 ave 448 max 317 min
Histogram: 3 1 1 0 0 0 1 1 0 1
Neighs:    5151.5 ave 7847 max 3669 min
Histogram: 1 2 1 2 0 1 0 0 0 1

Total # of neighbors = 41212
Ave neighs/atom = 8.2424
Ave special neighs/atom = 5.52
Neighbor list builds = 19
Dangerous builds = 0

unfix fxlan
unfix fxnve
reset_timestep 0

variable t equal step
variable steps equal 200000000
variable dt_thermo equal 1000000
variable dt_movie equal 1000000

group rxnSites type 1 3
1000 atoms in group rxnSites

fix Colvars all colvars N200_Rg_IC_175A.colvars output ${fName}
fix Colvars all colvars N200_Rg_IC_175A.colvars output Run5_IC_Rg_175A_Es_3kT_Ens05kT

# fix ID group-ID(atom-types) bond/create Nevery itype jtype Rmin bondtype (prob values = fraction seed) (iparam maxbond newType)
fix bondc rxnSites bond/create/random 20 1 3 12.72 3 prob 1 ${seed} iparam 1 1 jparam 1 3
fix bondc rxnSites bond/create/random 20 1 3 12.72 3 prob 1 832667 iparam 1 1 jparam 1 3

# fix ID group-ID bond/break Nevery bondtype Rmax keyword values ...
fix bondbr rxnSites bond/break 20 3 12.72 prob 1 ${seed}
fix bondbr rxnSites bond/break 20 3 12.72 prob 1 832667

variable frmbnd equal f_bondc[2]
variable brkbnd equal f_bondbr[2]
fix saveBond all print ${dt_thermo} "$t ${frmbnd} ${brkbnd}" file BondData_${fName}.dat screen no
fix saveBond all print 1000000 "$t ${frmbnd} ${brkbnd}" file BondData_${fName}.dat screen no
fix saveBond all print 1000000 "$t ${frmbnd} ${brkbnd}" file BondData_Run5_IC_Rg_175A_Es_3kT_Ens05kT.dat screen no

thermo_style    custom step epair pe ke ebond eangle temp bonds
thermo          ${dt_thermo}
thermo          1000000
fix saveThermo all print ${dt_thermo} "$t $(temp) $(ke) $(pe) $(epair) $(ebond) $(eangle) $(bonds)" file Thermo_${fName}.dat title "# Steps Temp KinEng PotEng Epair Ebond Eangle Bonds" screen no
fix saveThermo all print 1000000 "$t $(temp) $(ke) $(pe) $(epair) $(ebond) $(eangle) $(bonds)" file Thermo_${fName}.dat title "# Steps Temp KinEng PotEng Epair Ebond Eangle Bonds" screen no
fix saveThermo all print 1000000 "$t $(temp) $(ke) $(pe) $(epair) $(ebond) $(eangle) $(bonds)" file Thermo_Run5_IC_Rg_175A_Es_3kT_Ens05kT.dat title "# Steps Temp KinEng PotEng Epair Ebond Eangle Bonds" screen no

############################ Langevin Dynamics ###############################
fix fxlan all langevin $T $T 500 ${seed}
fix fxlan all langevin 310 $T 500 ${seed}
fix fxlan all langevin 310 310 500 ${seed}
fix fxlan all langevin 310 310 500 832667
fix fxnve all nve

comm_style tiled
fix fxbal all balance 1000 1.05 rcb # load balance for spatially heterogeneous system

timestep 25

dump coor all custom ${dt_movie} traj_${fName}.dump id type mol mass x y z xu yu zu
dump coor all custom 1000000 traj_${fName}.dump id type mol mass x y z xu yu zu
dump coor all custom 1000000 traj_Run5_IC_Rg_175A_Es_3kT_Ens05kT.dump id type mol mass x y z xu yu zu

run ${steps}
run 200000000
Neighbor list info ...
  update every 1 steps, delay 1 steps, check yes
  max neighbors/atom: 2000, page size: 100000
  master list distance cutoff = 26.9
  ghost atom cutoff = 26.9
  binsize = 13.45, bins = 38 38 38
  2 neighbor lists, perpetual/occasional/extra = 1 1 0
  (1) pair lj/cut, perpetual
      attributes: half, newton on
      pair build: half/bin/newton
      stencil: half/bin/3d/newton
      bin: standard
  (2) fix bond/create/random, occasional, copy from (1)
      attributes: half, newton on
      pair build: copy
      stencil: none
      bin: none
colvars: Creating proxy instance
colvars: ----------------------------------------------------------------------
colvars: Initializing the collective variables module, version "2019-04-26".
colvars: Please cite Fiorin et al, Mol Phys 2013:
colvars:  http://dx.doi.org/10.1080/00268976.2013.813594
colvars: in any publication based on this calculation.
colvars: Using LAMMPS interface, version "2019-04-09".
colvars: ----------------------------------------------------------------------
colvars: Reading new configuration from file "N200_Rg_IC_175A.colvars":
colvars: # smp = on [default]
colvars: # colvarsTrajFrequency = 50000
colvars: # colvarsRestartFrequency = 50000
colvars: # scriptedColvarForces = off [default]
colvars: # scriptingAfterBiases = off [default]
colvars: ----------------------------------------------------------------------
colvars:   Initializing a new collective variable.
colvars:   # name = "Rg1"
colvars:   Initializing a new "gyration" component.
colvars:     # name = "" [default]
colvars:     # componentCoeff = 1 [default]
colvars:     # componentExp = 1 [default]
colvars:     # period = 0 [default]
colvars:     # wrapAround = 0 [default]
colvars:     # forceNoPBC = off [default]
colvars:     # scalable = on [default]
colvars:       Initializing atom group "atoms".
colvars:       # name = "" [default]
colvars:       # centerReference = off [default]
colvars:       # rotateReference = off [default]
colvars:       # atomsOfGroup = "" [default]
colvars:       # indexGroup = "" [default]
colvars:       # psfSegID =  [default]
colvars:       # atomsFile = "" [default]
colvars:       # dummyAtom = ( 0 , 0 , 0 ) [default]
colvars:       # enableForces = on [default]
colvars:       # enableFitGradients = on [default]
colvars:       # printAtomIDs = off [default]
colvars:       Atom group "atoms" defined with 200 atoms requested.
colvars:   All components initialized.
colvars:   # timeStepFactor = 1 [default]
colvars:   # width = 1 [default]
colvars:   # lowerBoundary = 0
colvars:   # upperBoundary = 200
colvars:   # hardLowerBoundary = off [default]
colvars:   # hardUpperBoundary = on
colvars:   # expandBoundaries = off [default]
colvars:   # extendedLagrangian = off [default]
colvars:   # outputValue = on [default]
colvars:   # outputVelocity = off [default]
colvars:   # outputTotalForce = off [default]
colvars:   # outputAppliedForce = off [default]
colvars:   # subtractAppliedForce = off [default]
colvars:   # runAve = off [default]
colvars:   # corrFunc = off [default]
colvars: ----------------------------------------------------------------------
colvars: Collective variables initialized, 1 in total.
colvars: ----------------------------------------------------------------------
colvars:   Initializing a new "metadynamics" instance.
colvars:   # name = "meta-radgy"
colvars:   # colvars = { Rg1 }
colvars:   # outputEnergy = off [default]
colvars:   # timeStepFactor = 1 [default]
colvars:   # writeTISamples = off [default]
colvars:   # writeTIPMF = off [default]
colvars:   # hillWeight = 0.2
colvars:   # newHillFrequency = 500
colvars:   # hillWidth = 1
colvars:   Half-widths of the Gaussian hills (sigma's):
colvars:   Rg1: 0.5
colvars:   # multipleReplicas = off [default]
colvars:   # useGrids = on [default]
colvars:   # gridsUpdateFrequency = 500 [default]
colvars:   # rebinGrids = off [default]
colvars:   # keepHills = off [default]
colvars:   # writeFreeEnergyFile = on [default]
colvars:   # keepFreeEnergyFiles = off [default]
colvars:   # writeHillsTrajectory = on
colvars:   # wellTempered = on
colvars:   # biasTemperature = 310
colvars:   Well-tempered metadynamics is used.
colvars:   The bias temperature is 310.
colvars:   # ebMeta = off [default]
colvars: ----------------------------------------------------------------------
colvars: Collective variables biases initialized, 1 in total.
colvars: ----------------------------------------------------------------------
colvars: Collective variables module (re)initialized.
colvars: ----------------------------------------------------------------------
colvars: The restart output state file will be "rest.colvars.state".
colvars: The final output state file will be "Run5_IC_Rg_175A_Es_3kT_Ens05kT.colvars.state".
colvars: Writing to colvar trajectory file "Run5_IC_Rg_175A_Es_3kT_Ens05kT.colvars.traj".
colvars: Re-initialized atom group for variable "Rg1":0/0. 200 atoms: total mass = 200000, total charge = 0.
Per MPI rank memory allocation (min/avg/max) = 10.35 | 10.51 | 11.05 Mbytes
Step E_pair PotEng KinEng E_bond E_angle Temp Bonds 
       0   -2367.7602    1549.4361    4571.0755    1704.6869    2212.5093    306.76158     4800 
colvars: Synchronizing (emptying the buffer of) trajectory file "Run5_IC_Rg_175A_Es_3kT_Ens05kT.colvars.traj".
colvars: Saving collective variables state to "rest.colvars.state".
colvars: Synchronizing (emptying the buffer of) trajectory file "Run5_IC_Rg_175A_Es_3kT_Ens05kT.colvars.traj".
colvars: Saving collective variables state to "rest.colvars.state".
colvars: Synchronizing (emptying the buffer of) trajectory file "Run5_IC_Rg_175A_Es_3kT_Ens05kT.colvars.traj".
colvars: Saving collective variables state to "rest.colvars.state".
colvars: Synchronizing (emptying the buffer of) trajectory file "Run5_IC_Rg_175A_Es_3kT_Ens05kT.colvars.traj".
colvars: Saving collective variables state to "rest.colvars.state".
colvars: Synchronizing (emptying the buffer of) trajectory file "Run5_IC_Rg_175A_Es_3kT_Ens05kT.colvars.traj".
colvars: Saving collective variables state to "rest.colvars.state".
colvars: Synchronizing (emptying the buffer of) trajectory file "Run5_IC_Rg_175A_Es_3kT_Ens05kT.colvars.traj".
colvars: Saving collective variables state to "rest.colvars.state".
colvars: Synchronizing (emptying the buffer of) trajectory file "Run5_IC_Rg_175A_Es_3kT_Ens05kT.colvars.traj".
colvars: Saving collective variables state to "rest.colvars.state".
colvars: Synchronizing (emptying the buffer of) trajectory file "Run5_IC_Rg_175A_Es_3kT_Ens05kT.colvars.traj".
colvars: Saving collective variables state to "rest.colvars.state".
colvars: Synchronizing (emptying the buffer of) trajectory file "Run5_IC_Rg_175A_Es_3kT_Ens05kT.colvars.traj".
colvars: Saving collective variables state to "rest.colvars.state".
colvars: Synchronizing (emptying the buffer of) trajectory file "Run5_IC_Rg_175A_Es_3kT_Ens05kT.colvars.traj".
colvars: Saving collective variables state to "rest.colvars.state".
colvars: Synchronizing (emptying the buffer of) trajectory file "Run5_IC_Rg_175A_Es_3kT_Ens05kT.colvars.traj".
colvars: Saving collective variables state to "rest.colvars.state".
colvars: Synchronizing (emptying the buffer of) trajectory file "Run5_IC_Rg_175A_Es_3kT_Ens05kT.colvars.traj".
colvars: Saving collective variables state to "rest.colvars.state".
colvars: Synchronizing (emptying the buffer of) trajectory file "Run5_IC_Rg_175A_Es_3kT_Ens05kT.colvars.traj".
colvars: Saving collective variables state to "rest.colvars.state".
colvars: Synchronizing (emptying the buffer of) trajectory file "Run5_IC_Rg_175A_Es_3kT_Ens05kT.colvars.traj".
colvars: Saving collective variables state to "rest.colvars.state".
colvars: Synchronizing (emptying the buffer of) trajectory file "Run5_IC_Rg_175A_Es_3kT_Ens05kT.colvars.traj".
colvars: Saving collective variables state to "rest.colvars.state".
colvars: Synchronizing (emptying the buffer of) trajectory file "Run5_IC_Rg_175A_Es_3kT_Ens05kT.colvars.traj".
colvars: Saving collective variables state to "rest.colvars.state".
colvars: Synchronizing (emptying the buffer of) trajectory file "Run5_IC_Rg_175A_Es_3kT_Ens05kT.colvars.traj".
colvars: Saving collective variables state to "rest.colvars.state".
colvars: Synchronizing (emptying the buffer of) trajectory file "Run5_IC_Rg_175A_Es_3kT_Ens05kT.colvars.traj".
colvars: Saving collective variables state to "rest.colvars.state".
colvars: Synchronizing (emptying the buffer of) trajectory file "Run5_IC_Rg_175A_Es_3kT_Ens05kT.colvars.traj".
colvars: Saving collective variables state to "rest.colvars.state".
colvars: Synchronizing (emptying the buffer of) trajectory file "Run5_IC_Rg_175A_Es_3kT_Ens05kT.colvars.traj".
colvars: Saving collective variables state to "rest.colvars.state".
 1000000   -1612.7737    2764.8862    4646.5108    1494.2975    2883.3624    311.82398     5118 
colvars: Synchronizing (emptying the buffer of) trajectory file "Run5_IC_Rg_175A_Es_3kT_Ens05kT.colvars.traj".
colvars: Saving collective variables state to "rest.colvars.state".
colvars: Synchronizing (emptying the buffer of) trajectory file "Run5_IC_Rg_175A_Es_3kT_Ens05kT.colvars.traj".
colvars: Saving collective variables state to "rest.colvars.state".
colvars: Synchronizing (emptying the buffer of) trajectory file "Run5_IC_Rg_175A_Es_3kT_Ens05kT.colvars.traj".
colvars: Saving collective variables state to "rest.colvars.state".
colvars: Synchronizing (emptying the buffer of) trajectory file "Run5_IC_Rg_175A_Es_3kT_Ens05kT.colvars.traj".
colvars: Saving collective variables state to "rest.colvars.state".
colvars: Synchronizing (emptying the buffer of) trajectory file "Run5_IC_Rg_175A_Es_3kT_Ens05kT.colvars.traj".
colvars: Saving collective variables state to "rest.colvars.state".
colvars: Synchronizing (emptying the buffer of) trajectory file "Run5_IC_Rg_175A_Es_3kT_Ens05kT.colvars.traj".
colvars: Saving collective variables state to "rest.colvars.state".
colvars: Synchronizing (emptying the buffer of) trajectory file "Run5_IC_Rg_175A_Es_3kT_Ens05kT.colvars.traj".
colvars: Saving collective variables state to "rest.colvars.state".
colvars: Synchronizing (emptying the buffer of) trajectory file "Run5_IC_Rg_175A_Es_3kT_Ens05kT.colvars.traj".
colvars: Saving collective variables state to "rest.colvars.state".
colvars: Synchronizing (emptying the buffer of) trajectory file "Run5_IC_Rg_175A_Es_3kT_Ens05kT.colvars.traj".
colvars: Saving collective variables state to "rest.colvars.state".
colvars: Synchronizing (emptying the buffer of) trajectory file "Run5_IC_Rg_175A_Es_3kT_Ens05kT.colvars.traj".
colvars: Saving collective variables state to "rest.colvars.state".
colvars: Synchronizing (emptying the buffer of) trajectory file "Run5_IC_Rg_175A_Es_3kT_Ens05kT.colvars.traj".
colvars: Saving collective variables state to "rest.colvars.state".
colvars: Synchronizing (emptying the buffer of) trajectory file "Run5_IC_Rg_175A_Es_3kT_Ens05kT.colvars.traj".
colvars: Saving collective variables state to "rest.colvars.state".
colvars: Synchronizing (emptying the buffer of) trajectory file "Run5_IC_Rg_175A_Es_3kT_Ens05kT.colvars.traj".
colvars: Saving collective variables state to "rest.colvars.state".
colvars: Synchronizing (emptying the buffer of) trajectory file "Run5_IC_Rg_175A_Es_3kT_Ens05kT.colvars.traj".
colvars: Saving collective variables state to "rest.colvars.state".
colvars: Synchronizing (emptying the buffer of) trajectory file "Run5_IC_Rg_175A_Es_3kT_Ens05kT.colvars.traj".
colvars: Saving collective variables state to "rest.colvars.state".
colvars: Synchronizing (emptying the buffer of) trajectory file "Run5_IC_Rg_175A_Es_3kT_Ens05kT.colvars.traj".
colvars: Saving collective variables state to "rest.colvars.state".
colvars: Synchronizing (emptying the buffer of) trajectory file "Run5_IC_Rg_175A_Es_3kT_Ens05kT.colvars.traj".
colvars: Saving collective variables state to "rest.colvars.state".
colvars: Synchronizing (emptying the buffer of) trajectory file "Run5_IC_Rg_175A_Es_3kT_Ens05kT.colvars.traj".
colvars: Saving collective variables state to "rest.colvars.state".
colvars: Synchronizing (emptying the buffer of) trajectory file "Run5_IC_Rg_175A_Es_3kT_Ens05kT.colvars.traj".
colvars: Saving collective variables state to "rest.colvars.state".
colvars: Synchronizing (emptying the buffer of) trajectory file "Run5_IC_Rg_175A_Es_3kT_Ens05kT.colvars.traj".
colvars: Saving collective variables state to "rest.colvars.state".
 2000000   -1890.0952    2490.5436    4655.7623    1527.9199    2852.7189    312.44484     5156 
colvars: Synchronizing (emptying the buffer of) trajectory file "Run5_IC_Rg_175A_Es_3kT_Ens05kT.colvars.traj".
colvars: Saving collective variables state to "rest.colvars.state".
colvars: Synchronizing (emptying the buffer of) trajectory file "Run5_IC_Rg_175A_Es_3kT_Ens05kT.colvars.traj".
colvars: Saving collective variables state to "rest.colvars.state".
colvars: Synchronizing (emptying the buffer of) trajectory file "Run5_IC_Rg_175A_Es_3kT_Ens05kT.colvars.traj".
colvars: Saving collective variables state to "rest.colvars.state".
colvars: Synchronizing (emptying the buffer of) trajectory file "Run5_IC_Rg_175A_Es_3kT_Ens05kT.colvars.traj".
colvars: Saving collective variables state to "rest.colvars.state".
colvars: Synchronizing (emptying the buffer of) trajectory file "Run5_IC_Rg_175A_Es_3kT_Ens05kT.colvars.traj".
colvars: Saving collective variables state to "rest.colvars.state".
colvars: Synchronizing (emptying the buffer of) trajectory file "Run5_IC_Rg_175A_Es_3kT_Ens05kT.colvars.traj".
colvars: Saving collective variables state to "rest.colvars.state".
colvars: Synchronizing (emptying the buffer of) trajectory file "Run5_IC_Rg_175A_Es_3kT_Ens05kT.colvars.traj".
colvars: Saving collective variables state to "rest.colvars.state".
colvars: Synchronizing (emptying the buffer of) trajectory file "Run5_IC_Rg_175A_Es_3kT_Ens05kT.colvars.traj".
colvars: Saving collective variables state to "rest.colvars.state".
colvars: Synchronizing (emptying the buffer of) trajectory file "Run5_IC_Rg_175A_Es_3kT_Ens05kT.colvars.traj".
colvars: Saving collective variables state to "rest.colvars.state".
colvars: Synchronizing (emptying the buffer of) trajectory file "Run5_IC_Rg_175A_Es_3kT_Ens05kT.colvars.traj".
colvars: Saving collective variables state to "rest.colvars.state".
colvars: Synchronizing (emptying the buffer of) trajectory file "Run5_IC_Rg_175A_Es_3kT_Ens05kT.colvars.traj".
colvars: Saving collective variables state to "rest.colvars.state".
colvars: Synchronizing (emptying the buffer of) trajectory file "Run5_IC_Rg_175A_Es_3kT_Ens05kT.colvars.traj".
colvars: Saving collective variables state to "rest.colvars.state".
colvars: Synchronizing (emptying the buffer of) trajectory file "Run5_IC_Rg_175A_Es_3kT_Ens05kT.colvars.traj".
colvars: Saving collective variables state to "rest.colvars.state".
colvars: Synchronizing (emptying the buffer of) trajectory file "Run5_IC_Rg_175A_Es_3kT_Ens05kT.colvars.traj".
colvars: Saving collective variables state to "rest.colvars.state".
colvars: Synchronizing (emptying the buffer of) trajectory file "Run5_IC_Rg_175A_Es_3kT_Ens05kT.colvars.traj".
colvars: Saving collective variables state to "rest.colvars.state".
colvars: Synchronizing (emptying the buffer of) trajectory file "Run5_IC_Rg_175A_Es_3kT_Ens05kT.colvars.traj".
colvars: Saving collective variables state to "rest.colvars.state".
colvars: Synchronizing (emptying the buffer of) trajectory file "Run5_IC_Rg_175A_Es_3kT_Ens05kT.colvars.traj".
colvars: Saving collective variables state to "rest.colvars.state".
colvars: Synchronizing (emptying the buffer of) trajectory file "Run5_IC_Rg_175A_Es_3kT_Ens05kT.colvars.traj".
colvars: Saving collective variables state to "rest.colvars.state".
colvars: Synchronizing (emptying the buffer of) trajectory file "Run5_IC_Rg_175A_Es_3kT_Ens05kT.colvars.traj".
colvars: Saving collective variables state to "rest.colvars.state".
colvars: Synchronizing (emptying the buffer of) trajectory file "Run5_IC_Rg_175A_Es_3kT_Ens05kT.colvars.traj".
colvars: Saving collective variables state to "rest.colvars.state".
 3000000   -2204.4726    2323.9498    4489.6878     1587.586    2940.8364    301.29971     5183 
colvars: Synchronizing (emptying the buffer of) trajectory file "Run5_IC_Rg_175A_Es_3kT_Ens05kT.colvars.traj".
colvars: Saving collective variables state to "rest.colvars.state".
colvars: Synchronizing (emptying the buffer of) trajectory file "Run5_IC_Rg_175A_Es_3kT_Ens05kT.colvars.traj".
colvars: Saving collective variables state to "rest.colvars.state".
colvars: Synchronizing (emptying the buffer of) trajectory file "Run5_IC_Rg_175A_Es_3kT_Ens05kT.colvars.traj".
colvars: Saving collective variables state to "rest.colvars.state".
colvars: Synchronizing (emptying the buffer of) trajectory file "Run5_IC_Rg_175A_Es_3kT_Ens05kT.colvars.traj".
colvars: Saving collective variables state to "rest.colvars.state".
colvars: Synchronizing (emptying the buffer of) trajectory file "Run5_IC_Rg_175A_Es_3kT_Ens05kT.colvars.traj".
colvars: Saving collective variables state to "rest.colvars.state".
colvars: Synchronizing (emptying the buffer of) trajectory file "Run5_IC_Rg_175A_Es_3kT_Ens05kT.colvars.traj".
colvars: Saving collective variables state to "rest.colvars.state".
colvars: Synchronizing (emptying the buffer of) trajectory file "Run5_IC_Rg_175A_Es_3kT_Ens05kT.colvars.traj".
colvars: Saving collective variables state to "rest.colvars.state".
colvars: Synchronizing (emptying the buffer of) trajectory file "Run5_IC_Rg_175A_Es_3kT_Ens05kT.colvars.traj".
colvars: Saving collective variables state to "rest.colvars.state".
colvars: Synchronizing (emptying the buffer of) trajectory file "Run5_IC_Rg_175A_Es_3kT_Ens05kT.colvars.traj".
colvars: Saving collective variables state to "rest.colvars.state".
colvars: Synchronizing (emptying the buffer of) trajectory file "Run5_IC_Rg_175A_Es_3kT_Ens05kT.colvars.traj".
colvars: Saving collective variables state to "rest.colvars.state".
colvars: Synchronizing (emptying the buffer of) trajectory file "Run5_IC_Rg_175A_Es_3kT_Ens05kT.colvars.traj".
colvars: Saving collective variables state to "rest.colvars.state".
colvars: Synchronizing (emptying the buffer of) trajectory file "Run5_IC_Rg_175A_Es_3kT_Ens05kT.colvars.traj".
colvars: Saving collective variables state to "rest.colvars.state".
colvars: Synchronizing (emptying the buffer of) trajectory file "Run5_IC_Rg_175A_Es_3kT_Ens05kT.colvars.traj".
colvars: Saving collective variables state to "rest.colvars.state".
colvars: Synchronizing (emptying the buffer of) trajectory file "Run5_IC_Rg_175A_Es_3kT_Ens05kT.colvars.traj".
colvars: Saving collective variables state to "rest.colvars.state".
colvars: Synchronizing (emptying the buffer of) trajectory file "Run5_IC_Rg_175A_Es_3kT_Ens05kT.colvars.traj".
colvars: Saving collective variables state to "rest.colvars.state".
colvars: Synchronizing (emptying the buffer of) trajectory file "Run5_IC_Rg_175A_Es_3kT_Ens05kT.colvars.traj".
colvars: Saving collective variables state to "rest.colvars.state".
colvars: Synchronizing (emptying the buffer of) trajectory file "Run5_IC_Rg_175A_Es_3kT_Ens05kT.colvars.traj".
colvars: Saving collective variables state to "rest.colvars.state".
colvars: Synchronizing (emptying the buffer of) trajectory file "Run5_IC_Rg_175A_Es_3kT_Ens05kT.colvars.traj".
colvars: Saving collective variables state to "rest.colvars.state".
colvars: Synchronizing (emptying the buffer of) trajectory file "Run5_IC_Rg_175A_Es_3kT_Ens05kT.colvars.traj".
colvars: Saving collective variables state to "rest.colvars.state".
colvars: Synchronizing (emptying the buffer of) trajectory file "Run5_IC_Rg_175A_Es_3kT_Ens05kT.colvars.traj".
colvars: Saving collective variables state to "rest.colvars.state".
 4000000   -2338.8841    2199.5249    4587.8796    1523.6183    3014.7907    307.88928     5196 
colvars: Synchronizing (emptying the buffer of) trajectory file "Run5_IC_Rg_175A_Es_3kT_Ens05kT.colvars.traj".
colvars: Saving collective variables state to "rest.colvars.state".
colvars: Synchronizing (emptying the buffer of) trajectory file "Run5_IC_Rg_175A_Es_3kT_Ens05kT.colvars.traj".
colvars: Saving collective variables state to "rest.colvars.state".
colvars: Synchronizing (emptying the buffer of) trajectory file "Run5_IC_Rg_175A_Es_3kT_Ens05kT.colvars.traj".
colvars: Saving collective variables state to "rest.colvars.state".
colvars: Synchronizing (emptying the buffer of) trajectory file "Run5_IC_Rg_175A_Es_3kT_Ens05kT.colvars.traj".
colvars: Saving collective variables state to "rest.colvars.state".
colvars: Synchronizing (emptying the buffer of) trajectory file "Run5_IC_Rg_175A_Es_3kT_Ens05kT.colvars.traj".
colvars: Saving collective variables state to "rest.colvars.state".
colvars: Synchronizing (emptying the buffer of) trajectory file "Run5_IC_Rg_175A_Es_3kT_Ens05kT.colvars.traj".
colvars: Saving collective variables state to "rest.colvars.state".
colvars: Synchronizing (emptying the buffer of) trajectory file "Run5_IC_Rg_175A_Es_3kT_Ens05kT.colvars.traj".
colvars: Saving collective variables state to "rest.colvars.state".
colvars: Synchronizing (emptying the buffer of) trajectory file "Run5_IC_Rg_175A_Es_3kT_Ens05kT.colvars.traj".
colvars: Saving collective variables state to "rest.colvars.state".
colvars: Synchronizing (emptying the buffer of) trajectory file "Run5_IC_Rg_175A_Es_3kT_Ens05kT.colvars.traj".
colvars: Saving collective variables state to "rest.colvars.state".
colvars: Synchronizing (emptying the buffer of) trajectory file "Run5_IC_Rg_175A_Es_3kT_Ens05kT.colvars.traj".
colvars: Saving collective variables state to "rest.colvars.state".
colvars: Synchronizing (emptying the buffer of) trajectory file "Run5_IC_Rg_175A_Es_3kT_Ens05kT.colvars.traj".
colvars: Saving collective variables state to "rest.colvars.state".
colvars: Synchronizing (emptying the buffer of) trajectory file "Run5_IC_Rg_175A_Es_3kT_Ens05kT.colvars.traj".
colvars: Saving collective variables state to "rest.colvars.state".
colvars: Synchronizing (emptying the buffer of) trajectory file "Run5_IC_Rg_175A_Es_3kT_Ens05kT.colvars.traj".
colvars: Saving collective variables state to "rest.colvars.state".
colvars: Synchronizing (emptying the buffer of) trajectory file "Run5_IC_Rg_175A_Es_3kT_Ens05kT.colvars.traj".
colvars: Saving collective variables state to "rest.colvars.state".
colvars: Synchronizing (emptying the buffer of) trajectory file "Run5_IC_Rg_175A_Es_3kT_Ens05kT.colvars.traj".
colvars: Saving collective variables state to "rest.colvars.state".
colvars: Synchronizing (emptying the buffer of) trajectory file "Run5_IC_Rg_175A_Es_3kT_Ens05kT.colvars.traj".
colvars: Saving collective variables state to "rest.colvars.state".
colvars: Synchronizing (emptying the buffer of) trajectory file "Run5_IC_Rg_175A_Es_3kT_Ens05kT.colvars.traj".
colvars: Saving collective variables state to "rest.colvars.state".
colvars: Synchronizing (emptying the buffer of) trajectory file "Run5_IC_Rg_175A_Es_3kT_Ens05kT.colvars.traj".
colvars: Saving collective variables state to "rest.colvars.state".
colvars: Synchronizing (emptying the buffer of) trajectory file "Run5_IC_Rg_175A_Es_3kT_Ens05kT.colvars.traj".
colvars: Saving collective variables state to "rest.colvars.state".
colvars: Synchronizing (emptying the buffer of) trajectory file "Run5_IC_Rg_175A_Es_3kT_Ens05kT.colvars.traj".
colvars: Saving collective variables state to "rest.colvars.state".
 5000000   -2513.8766    1940.5324    4536.1801    1533.1377    2921.2713    304.41977     5205 
colvars: Synchronizing (emptying the buffer of) trajectory file "Run5_IC_Rg_175A_Es_3kT_Ens05kT.colvars.traj".
colvars: Saving collective variables state to "rest.colvars.state".
colvars: Synchronizing (emptying the buffer of) trajectory file "Run5_IC_Rg_175A_Es_3kT_Ens05kT.colvars.traj".
colvars: Saving collective variables state to "rest.colvars.state".
colvars: Synchronizing (emptying the buffer of) trajectory file "Run5_IC_Rg_175A_Es_3kT_Ens05kT.colvars.traj".
colvars: Saving collective variables state to "rest.colvars.state".
colvars: Synchronizing (emptying the buffer of) trajectory file "Run5_IC_Rg_175A_Es_3kT_Ens05kT.colvars.traj".
colvars: Saving collective variables state to "rest.colvars.state".
colvars: Synchronizing (emptying the buffer of) trajectory file "Run5_IC_Rg_175A_Es_3kT_Ens05kT.colvars.traj".
colvars: Saving collective variables state to "rest.colvars.state".
colvars: Synchronizing (emptying the buffer of) trajectory file "Run5_IC_Rg_175A_Es_3kT_Ens05kT.colvars.traj".
colvars: Saving collective variables state to "rest.colvars.state".
colvars: Synchronizing (emptying the buffer of) trajectory file "Run5_IC_Rg_175A_Es_3kT_Ens05kT.colvars.traj".
colvars: Saving collective variables state to "rest.colvars.state".
colvars: Synchronizing (emptying the buffer of) trajectory file "Run5_IC_Rg_175A_Es_3kT_Ens05kT.colvars.traj".
colvars: Saving collective variables state to "rest.colvars.state".
colvars: Synchronizing (emptying the buffer of) trajectory file "Run5_IC_Rg_175A_Es_3kT_Ens05kT.colvars.traj".
colvars: Saving collective variables state to "rest.colvars.state".
colvars: Synchronizing (emptying the buffer of) trajectory file "Run5_IC_Rg_175A_Es_3kT_Ens05kT.colvars.traj".
colvars: Saving collective variables state to "rest.colvars.state".
colvars: Synchronizing (emptying the buffer of) trajectory file "Run5_IC_Rg_175A_Es_3kT_Ens05kT.colvars.traj".
colvars: Saving collective variables state to "rest.colvars.state".
colvars: Synchronizing (emptying the buffer of) trajectory file "Run5_IC_Rg_175A_Es_3kT_Ens05kT.colvars.traj".
colvars: Saving collective variables state to "rest.colvars.state".
colvars: Synchronizing (emptying the buffer of) trajectory file "Run5_IC_Rg_175A_Es_3kT_Ens05kT.colvars.traj".
colvars: Saving collective variables state to "rest.colvars.state".
colvars: Synchronizing (emptying the buffer of) trajectory file "Run5_IC_Rg_175A_Es_3kT_Ens05kT.colvars.traj".
colvars: Saving collective variables state to "rest.colvars.state".
colvars: Synchronizing (emptying the buffer of) trajectory file "Run5_IC_Rg_175A_Es_3kT_Ens05kT.colvars.traj".
colvars: Saving collective variables state to "rest.colvars.state".
colvars: Synchronizing (emptying the buffer of) trajectory file "Run5_IC_Rg_175A_Es_3kT_Ens05kT.colvars.traj".
colvars: Saving collective variables state to "rest.colvars.state".
colvars: Synchronizing (emptying the buffer of) trajectory file "Run5_IC_Rg_175A_Es_3kT_Ens05kT.colvars.traj".
colvars: Saving collective variables state to "rest.colvars.state".
colvars: Synchronizing (emptying the buffer of) trajectory file "Run5_IC_Rg_175A_Es_3kT_Ens05kT.colvars.traj".
colvars: Saving collective variables state to "rest.colvars.state".
colvars: Synchronizing (emptying the buffer of) trajectory file "Run5_IC_Rg_175A_Es_3kT_Ens05kT.colvars.traj".
colvars: Saving collective variables state to "rest.colvars.state".
colvars: Synchronizing (emptying the buffer of) trajectory file "Run5_IC_Rg_175A_Es_3kT_Ens05kT.colvars.traj".
colvars: Saving collective variables state to "rest.colvars.state".
 6000000   -2697.4826    1817.6323    4609.6904    1569.2982    2945.8167    309.35299     5213 
colvars: Synchronizing (emptying the buffer of) trajectory file "Run5_IC_Rg_175A_Es_3kT_Ens05kT.colvars.traj".
colvars: Saving collective variables state to "rest.colvars.state".
colvars: Synchronizing (emptying the buffer of) trajectory file "Run5_IC_Rg_175A_Es_3kT_Ens05kT.colvars.traj".
colvars: Saving collective variables state to "rest.colvars.state".
colvars: Synchronizing (emptying the buffer of) trajectory file "Run5_IC_Rg_175A_Es_3kT_Ens05kT.colvars.traj".
colvars: Saving collective variables state to "rest.colvars.state".
colvars: Synchronizing (emptying the buffer of) trajectory file "Run5_IC_Rg_175A_Es_3kT_Ens05kT.colvars.traj".
colvars: Saving collective variables state to "rest.colvars.state".
colvars: Synchronizing (emptying the buffer of) trajectory file "Run5_IC_Rg_175A_Es_3kT_Ens05kT.colvars.traj".
colvars: Saving collective variables state to "rest.colvars.state".
colvars: Synchronizing (emptying the buffer of) trajectory file "Run5_IC_Rg_175A_Es_3kT_Ens05kT.colvars.traj".
colvars: Saving collective variables state to "rest.colvars.state".
colvars: Synchronizing (emptying the buffer of) trajectory file "Run5_IC_Rg_175A_Es_3kT_Ens05kT.colvars.traj".
colvars: Saving collective variables state to "rest.colvars.state".
colvars: Synchronizing (emptying the buffer of) trajectory file "Run5_IC_Rg_175A_Es_3kT_Ens05kT.colvars.traj".
colvars: Saving collective variables state to "rest.colvars.state".
colvars: Synchronizing (emptying the buffer of) trajectory file "Run5_IC_Rg_175A_Es_3kT_Ens05kT.colvars.traj".
colvars: Saving collective variables state to "rest.colvars.state".
colvars: Synchronizing (emptying the buffer of) trajectory file "Run5_IC_Rg_175A_Es_3kT_Ens05kT.colvars.traj".
colvars: Saving collective variables state to "rest.colvars.state".
colvars: Synchronizing (emptying the buffer of) trajectory file "Run5_IC_Rg_175A_Es_3kT_Ens05kT.colvars.traj".
colvars: Saving collective variables state to "rest.colvars.state".
colvars: Synchronizing (emptying the buffer of) trajectory file "Run5_IC_Rg_175A_Es_3kT_Ens05kT.colvars.traj".
colvars: Saving collective variables state to "rest.colvars.state".
colvars: Synchronizing (emptying the buffer of) trajectory file "Run5_IC_Rg_175A_Es_3kT_Ens05kT.colvars.traj".
colvars: Saving collective variables state to "rest.colvars.state".
colvars: Synchronizing (emptying the buffer of) trajectory file "Run5_IC_Rg_175A_Es_3kT_Ens05kT.colvars.traj".
colvars: Saving collective variables state to "rest.colvars.state".
colvars: Synchronizing (emptying the buffer of) trajectory file "Run5_IC_Rg_175A_Es_3kT_Ens05kT.colvars.traj".
colvars: Saving collective variables state to "rest.colvars.state".
colvars: Synchronizing (emptying the buffer of) trajectory file "Run5_IC_Rg_175A_Es_3kT_Ens05kT.colvars.traj".
colvars: Saving collective variables state to "rest.colvars.state".
colvars: Synchronizing (emptying the buffer of) trajectory file "Run5_IC_Rg_175A_Es_3kT_Ens05kT.colvars.traj".
colvars: Saving collective variables state to "rest.colvars.state".
colvars: Synchronizing (emptying the buffer of) trajectory file "Run5_IC_Rg_175A_Es_3kT_Ens05kT.colvars.traj".
colvars: Saving collective variables state to "rest.colvars.state".
colvars: Synchronizing (emptying the buffer of) trajectory file "Run5_IC_Rg_175A_Es_3kT_Ens05kT.colvars.traj".
colvars: Saving collective variables state to "rest.colvars.state".
colvars: Synchronizing (emptying the buffer of) trajectory file "Run5_IC_Rg_175A_Es_3kT_Ens05kT.colvars.traj".
colvars: Saving collective variables state to "rest.colvars.state".
 7000000   -2901.5396    1730.5378    4574.0668    1542.9458    3089.1316    306.96232     5223 
colvars: Synchronizing (emptying the buffer of) trajectory file "Run5_IC_Rg_175A_Es_3kT_Ens05kT.colvars.traj".
colvars: Saving collective variables state to "rest.colvars.state".
colvars: Synchronizing (emptying the buffer of) trajectory file "Run5_IC_Rg_175A_Es_3kT_Ens05kT.colvars.traj".
colvars: Saving collective variables state to "rest.colvars.state".
colvars: Synchronizing (emptying the buffer of) trajectory file "Run5_IC_Rg_175A_Es_3kT_Ens05kT.colvars.traj".
colvars: Saving collective variables state to "rest.colvars.state".
colvars: Synchronizing (emptying the buffer of) trajectory file "Run5_IC_Rg_175A_Es_3kT_Ens05kT.colvars.traj".
colvars: Saving collective variables state to "rest.colvars.state".
colvars: Synchronizing (emptying the buffer of) trajectory file "Run5_IC_Rg_175A_Es_3kT_Ens05kT.colvars.traj".
colvars: Saving collective variables state to "rest.colvars.state".
colvars: Synchronizing (emptying the buffer of) trajectory file "Run5_IC_Rg_175A_Es_3kT_Ens05kT.colvars.traj".
colvars: Saving collective variables state to "rest.colvars.state".
colvars: Synchronizing (emptying the buffer of) trajectory file "Run5_IC_Rg_175A_Es_3kT_Ens05kT.colvars.traj".
colvars: Saving collective variables state to "rest.colvars.state".
colvars: Synchronizing (emptying the buffer of) trajectory file "Run5_IC_Rg_175A_Es_3kT_Ens05kT.colvars.traj".
colvars: Saving collective variables state to "rest.colvars.state".
colvars: Synchronizing (emptying the buffer of) trajectory file "Run5_IC_Rg_175A_Es_3kT_Ens05kT.colvars.traj".
colvars: Saving collective variables state to "rest.colvars.state".
colvars: Synchronizing (emptying the buffer of) trajectory file "Run5_IC_Rg_175A_Es_3kT_Ens05kT.colvars.traj".
colvars: Saving collective variables state to "rest.colvars.state".
colvars: Synchronizing (emptying the buffer of) trajectory file "Run5_IC_Rg_175A_Es_3kT_Ens05kT.colvars.traj".
colvars: Saving collective variables state to "rest.colvars.state".
colvars: Synchronizing (emptying the buffer of) trajectory file "Run5_IC_Rg_175A_Es_3kT_Ens05kT.colvars.traj".
colvars: Saving collective variables state to "rest.colvars.state".
colvars: Synchronizing (emptying the buffer of) trajectory file "Run5_IC_Rg_175A_Es_3kT_Ens05kT.colvars.traj".
colvars: Saving collective variables state to "rest.colvars.state".
colvars: Synchronizing (emptying the buffer of) trajectory file "Run5_IC_Rg_175A_Es_3kT_Ens05kT.colvars.traj".
colvars: Saving collective variables state to "rest.colvars.state".
colvars: Synchronizing (emptying the buffer of) trajectory file "Run5_IC_Rg_175A_Es_3kT_Ens05kT.colvars.traj".
colvars: Saving collective variables state to "rest.colvars.state".
colvars: Synchronizing (emptying the buffer of) trajectory file "Run5_IC_Rg_175A_Es_3kT_Ens05kT.colvars.traj".
colvars: Saving collective variables state to "rest.colvars.state".
colvars: Synchronizing (emptying the buffer of) trajectory file "Run5_IC_Rg_175A_Es_3kT_Ens05kT.colvars.traj".
colvars: Saving collective variables state to "rest.colvars.state".
colvars: Synchronizing (emptying the buffer of) trajectory file "Run5_IC_Rg_175A_Es_3kT_Ens05kT.colvars.traj".
colvars: Saving collective variables state to "rest.colvars.state".
colvars: Synchronizing (emptying the buffer of) trajectory file "Run5_IC_Rg_175A_Es_3kT_Ens05kT.colvars.traj".
colvars: Saving collective variables state to "rest.colvars.state".
colvars: Synchronizing (emptying the buffer of) trajectory file "Run5_IC_Rg_175A_Es_3kT_Ens05kT.colvars.traj".
colvars: Saving collective variables state to "rest.colvars.state".
 8000000   -2953.9992    1671.1828    4597.2962    1634.1867    2990.9953    308.52122     5227 
colvars: Synchronizing (emptying the buffer of) trajectory file "Run5_IC_Rg_175A_Es_3kT_Ens05kT.colvars.traj".
colvars: Saving collective variables state to "rest.colvars.state".
colvars: Synchronizing (emptying the buffer of) trajectory file "Run5_IC_Rg_175A_Es_3kT_Ens05kT.colvars.traj".
colvars: Saving collective variables state to "rest.colvars.state".
colvars: Synchronizing (emptying the buffer of) trajectory file "Run5_IC_Rg_175A_Es_3kT_Ens05kT.colvars.traj".
colvars: Saving collective variables state to "rest.colvars.state".
colvars: Synchronizing (emptying the buffer of) trajectory file "Run5_IC_Rg_175A_Es_3kT_Ens05kT.colvars.traj".
colvars: Saving collective variables state to "rest.colvars.state".
colvars: Synchronizing (emptying the buffer of) trajectory file "Run5_IC_Rg_175A_Es_3kT_Ens05kT.colvars.traj".
colvars: Saving collective variables state to "rest.colvars.state".
colvars: Synchronizing (emptying the buffer of) trajectory file "Run5_IC_Rg_175A_Es_3kT_Ens05kT.colvars.traj".
colvars: Saving collective variables state to "rest.colvars.state".
colvars: Synchronizing (emptying the buffer of) trajectory file "Run5_IC_Rg_175A_Es_3kT_Ens05kT.colvars.traj".
colvars: Saving collective variables state to "rest.colvars.state".
colvars: Synchronizing (emptying the buffer of) trajectory file "Run5_IC_Rg_175A_Es_3kT_Ens05kT.colvars.traj".
colvars: Saving collective variables state to "rest.colvars.state".
colvars: Synchronizing (emptying the buffer of) trajectory file "Run5_IC_Rg_175A_Es_3kT_Ens05kT.colvars.traj".
colvars: Saving collective variables state to "rest.colvars.state".
colvars: Synchronizing (emptying the buffer of) trajectory file "Run5_IC_Rg_175A_Es_3kT_Ens05kT.colvars.traj".
colvars: Saving collective variables state to "rest.colvars.state".
colvars: Synchronizing (emptying the buffer of) trajectory file "Run5_IC_Rg_175A_Es_3kT_Ens05kT.colvars.traj".
colvars: Saving collective variables state to "rest.colvars.state".
colvars: Synchronizing (emptying the buffer of) trajectory file "Run5_IC_Rg_175A_Es_3kT_Ens05kT.colvars.traj".
colvars: Saving collective variables state to "rest.colvars.state".
colvars: Synchronizing (emptying the buffer of) trajectory file "Run5_IC_Rg_175A_Es_3kT_Ens05kT.colvars.traj".
colvars: Saving collective variables state to "rest.colvars.state".
colvars: Synchronizing (emptying the buffer of) trajectory file "Run5_IC_Rg_175A_Es_3kT_Ens05kT.colvars.traj".
colvars: Saving collective variables state to "rest.colvars.state".
colvars: Synchronizing (emptying the buffer of) trajectory file "Run5_IC_Rg_175A_Es_3kT_Ens05kT.colvars.traj".
colvars: Saving collective variables state to "rest.colvars.state".
colvars: Synchronizing (emptying the buffer of) trajectory file "Run5_IC_Rg_175A_Es_3kT_Ens05kT.colvars.traj".
colvars: Saving collective variables state to "rest.colvars.state".
colvars: Synchronizing (emptying the buffer of) trajectory file "Run5_IC_Rg_175A_Es_3kT_Ens05kT.colvars.traj".
colvars: Saving collective variables state to "rest.colvars.state".
colvars: Synchronizing (emptying the buffer of) trajectory file "Run5_IC_Rg_175A_Es_3kT_Ens05kT.colvars.traj".
colvars: Saving collective variables state to "rest.colvars.state".
colvars: Synchronizing (emptying the buffer of) trajectory file "Run5_IC_Rg_175A_Es_3kT_Ens05kT.colvars.traj".
colvars: Saving collective variables state to "rest.colvars.state".
colvars: Synchronizing (emptying the buffer of) trajectory file "Run5_IC_Rg_175A_Es_3kT_Ens05kT.colvars.traj".
colvars: Saving collective variables state to "rest.colvars.state".
 9000000   -3120.6861    1378.6711    4645.9732    1543.2254    2956.1318     311.7879     5231 
colvars: Synchronizing (emptying the buffer of) trajectory file "Run5_IC_Rg_175A_Es_3kT_Ens05kT.colvars.traj".
colvars: Saving collective variables state to "rest.colvars.state".
colvars: Synchronizing (emptying the buffer of) trajectory file "Run5_IC_Rg_175A_Es_3kT_Ens05kT.colvars.traj".
colvars: Saving collective variables state to "rest.colvars.state".
colvars: Synchronizing (emptying the buffer of) trajectory file "Run5_IC_Rg_175A_Es_3kT_Ens05kT.colvars.traj".
colvars: Saving collective variables state to "rest.colvars.state".
colvars: Synchronizing (emptying the buffer of) trajectory file "Run5_IC_Rg_175A_Es_3kT_Ens05kT.colvars.traj".
colvars: Saving collective variables state to "rest.colvars.state".
colvars: Synchronizing (emptying the buffer of) trajectory file "Run5_IC_Rg_175A_Es_3kT_Ens05kT.colvars.traj".
colvars: Saving collective variables state to "rest.colvars.state".
colvars: Synchronizing (emptying the buffer of) trajectory file "Run5_IC_Rg_175A_Es_3kT_Ens05kT.colvars.traj".
colvars: Saving collective variables state to "rest.colvars.state".
colvars: Synchronizing (emptying the buffer of) trajectory file "Run5_IC_Rg_175A_Es_3kT_Ens05kT.colvars.traj".
colvars: Saving collective variables state to "rest.colvars.state".
colvars: Synchronizing (emptying the buffer of) trajectory file "Run5_IC_Rg_175A_Es_3kT_Ens05kT.colvars.traj".
colvars: Saving collective variables state to "rest.colvars.state".
colvars: Synchronizing (emptying the buffer of) trajectory file "Run5_IC_Rg_175A_Es_3kT_Ens05kT.colvars.traj".
colvars: Saving collective variables state to "rest.colvars.state".
colvars: Synchronizing (emptying the buffer of) trajectory file "Run5_IC_Rg_175A_Es_3kT_Ens05kT.colvars.traj".
colvars: Saving collective variables state to "rest.colvars.state".
colvars: Synchronizing (emptying the buffer of) trajectory file "Run5_IC_Rg_175A_Es_3kT_Ens05kT.colvars.traj".
colvars: Saving collective variables state to "rest.colvars.state".
colvars: Synchronizing (emptying the buffer of) trajectory file "Run5_IC_Rg_175A_Es_3kT_Ens05kT.colvars.traj".
colvars: Saving collective variables state to "rest.colvars.state".
colvars: Synchronizing (emptying the buffer of) trajectory file "Run5_IC_Rg_175A_Es_3kT_Ens05kT.colvars.traj".
colvars: Saving collective variables state to "rest.colvars.state".
colvars: Synchronizing (emptying the buffer of) trajectory file "Run5_IC_Rg_175A_Es_3kT_Ens05kT.colvars.traj".
colvars: Saving collective variables state to "rest.colvars.state".
colvars: Synchronizing (emptying the buffer of) trajectory file "Run5_IC_Rg_175A_Es_3kT_Ens05kT.colvars.traj".
colvars: Saving collective variables state to "rest.colvars.state".
colvars: Synchronizing (emptying the buffer of) trajectory file "Run5_IC_Rg_175A_Es_3kT_Ens05kT.colvars.traj".
colvars: Saving collective variables state to "rest.colvars.state".
colvars: Synchronizing (emptying the buffer of) trajectory file "Run5_IC_Rg_175A_Es_3kT_Ens05kT.colvars.traj".
colvars: Saving collective variables state to "rest.colvars.state".
colvars: Synchronizing (emptying the buffer of) trajectory file "Run5_IC_Rg_175A_Es_3kT_Ens05kT.colvars.traj".
colvars: Saving collective variables state to "rest.colvars.state".
colvars: Synchronizing (emptying the buffer of) trajectory file "Run5_IC_Rg_175A_Es_3kT_Ens05kT.colvars.traj".
colvars: Saving collective variables state to "rest.colvars.state".
colvars: Synchronizing (emptying the buffer of) trajectory file "Run5_IC_Rg_175A_Es_3kT_Ens05kT.colvars.traj".
colvars: Saving collective variables state to "rest.colvars.state".
10000000   -3164.2366    1373.6994    4602.3258    1558.5532    2979.3828    308.85876     5244 
colvars: Synchronizing (emptying the buffer of) trajectory file "Run5_IC_Rg_175A_Es_3kT_Ens05kT.colvars.traj".
colvars: Saving collective variables state to "rest.colvars.state".
colvars: Synchronizing (emptying the buffer of) trajectory file "Run5_IC_Rg_175A_Es_3kT_Ens05kT.colvars.traj".
colvars: Saving collective variables state to "rest.colvars.state".
colvars: Synchronizing (emptying the buffer of) trajectory file "Run5_IC_Rg_175A_Es_3kT_Ens05kT.colvars.traj".
colvars: Saving collective variables state to "rest.colvars.state".
colvars: Synchronizing (emptying the buffer of) trajectory file "Run5_IC_Rg_175A_Es_3kT_Ens05kT.colvars.traj".
colvars: Saving collective variables state to "rest.colvars.state".
colvars: Synchronizing (emptying the buffer of) trajectory file "Run5_IC_Rg_175A_Es_3kT_Ens05kT.colvars.traj".
colvars: Saving collective variables state to "rest.colvars.state".
colvars: Synchronizing (emptying the buffer of) trajectory file "Run5_IC_Rg_175A_Es_3kT_Ens05kT.colvars.traj".
colvars: Saving collective variables state to "rest.colvars.state".
colvars: Synchronizing (emptying the buffer of) trajectory file "Run5_IC_Rg_175A_Es_3kT_Ens05kT.colvars.traj".
colvars: Saving collective variables state to "rest.colvars.state".
colvars: Synchronizing (emptying the buffer of) trajectory file "Run5_IC_Rg_175A_Es_3kT_Ens05kT.colvars.traj".
colvars: Saving collective variables state to "rest.colvars.state".
colvars: Synchronizing (emptying the buffer of) trajectory file "Run5_IC_Rg_175A_Es_3kT_Ens05kT.colvars.traj".
colvars: Saving collective variables state to "rest.colvars.state".
colvars: Synchronizing (emptying the buffer of) trajectory file "Run5_IC_Rg_175A_Es_3kT_Ens05kT.colvars.traj".
colvars: Saving collective variables state to "rest.colvars.state".
colvars: Synchronizing (emptying the buffer of) trajectory file "Run5_IC_Rg_175A_Es_3kT_Ens05kT.colvars.traj".
colvars: Saving collective variables state to "rest.colvars.state".
colvars: Synchronizing (emptying the buffer of) trajectory file "Run5_IC_Rg_175A_Es_3kT_Ens05kT.colvars.traj".
colvars: Saving collective variables state to "rest.colvars.state".
colvars: Synchronizing (emptying the buffer of) trajectory file "Run5_IC_Rg_175A_Es_3kT_Ens05kT.colvars.traj".
colvars: Saving collective variables state to "rest.colvars.state".
colvars: Synchronizing (emptying the buffer of) trajectory file "Run5_IC_Rg_175A_Es_3kT_Ens05kT.colvars.traj".
colvars: Saving collective variables state to "rest.colvars.state".
colvars: Synchronizing (emptying the buffer of) trajectory file "Run5_IC_Rg_175A_Es_3kT_Ens05kT.colvars.traj".
colvars: Saving collective variables state to "rest.colvars.state".
colvars: Synchronizing (emptying the buffer of) trajectory file "Run5_IC_Rg_175A_Es_3kT_Ens05kT.colvars.traj".
colvars: Saving collective variables state to "rest.colvars.state".
colvars: Synchronizing (emptying the buffer of) trajectory file "Run5_IC_Rg_175A_Es_3kT_Ens05kT.colvars.traj".
colvars: Saving collective variables state to "rest.colvars.state".
colvars: Synchronizing (emptying the buffer of) trajectory file "Run5_IC_Rg_175A_Es_3kT_Ens05kT.colvars.traj".
colvars: Saving collective variables state to "rest.colvars.state".
colvars: Synchronizing (emptying the buffer of) trajectory file "Run5_IC_Rg_175A_Es_3kT_Ens05kT.colvars.traj".
colvars: Saving collective variables state to "rest.colvars.state".
colvars: Synchronizing (emptying the buffer of) trajectory file "Run5_IC_Rg_175A_Es_3kT_Ens05kT.colvars.traj".
colvars: Saving collective variables state to "rest.colvars.state".
11000000   -3324.8469    1191.1413    4625.5829    1559.3033    2956.6849    310.41953     5235 
colvars: Synchronizing (emptying the buffer of) trajectory file "Run5_IC_Rg_175A_Es_3kT_Ens05kT.colvars.traj".
colvars: Saving collective variables state to "rest.colvars.state".
colvars: Synchronizing (emptying the buffer of) trajectory file "Run5_IC_Rg_175A_Es_3kT_Ens05kT.colvars.traj".
colvars: Saving collective variables state to "rest.colvars.state".
colvars: Synchronizing (emptying the buffer of) trajectory file "Run5_IC_Rg_175A_Es_3kT_Ens05kT.colvars.traj".
colvars: Saving collective variables state to "rest.colvars.state".
colvars: Synchronizing (emptying the buffer of) trajectory file "Run5_IC_Rg_175A_Es_3kT_Ens05kT.colvars.traj".
colvars: Saving collective variables state to "rest.colvars.state".
colvars: Synchronizing (emptying the buffer of) trajectory file "Run5_IC_Rg_175A_Es_3kT_Ens05kT.colvars.traj".
colvars: Saving collective variables state to "rest.colvars.state".
colvars: Synchronizing (emptying the buffer of) trajectory file "Run5_IC_Rg_175A_Es_3kT_Ens05kT.colvars.traj".
colvars: Saving collective variables state to "rest.colvars.state".
colvars: Synchronizing (emptying the buffer of) trajectory file "Run5_IC_Rg_175A_Es_3kT_Ens05kT.colvars.traj".
colvars: Saving collective variables state to "rest.colvars.state".
colvars: Synchronizing (emptying the buffer of) trajectory file "Run5_IC_Rg_175A_Es_3kT_Ens05kT.colvars.traj".
colvars: Saving collective variables state to "rest.colvars.state".
colvars: Synchronizing (emptying the buffer of) trajectory file "Run5_IC_Rg_175A_Es_3kT_Ens05kT.colvars.traj".
colvars: Saving collective variables state to "rest.colvars.state".
colvars: Synchronizing (emptying the buffer of) trajectory file "Run5_IC_Rg_175A_Es_3kT_Ens05kT.colvars.traj".
colvars: Saving collective variables state to "rest.colvars.state".
colvars: Synchronizing (emptying the buffer of) trajectory file "Run5_IC_Rg_175A_Es_3kT_Ens05kT.colvars.traj".
colvars: Saving collective variables state to "rest.colvars.state".
colvars: Synchronizing (emptying the buffer of) trajectory file "Run5_IC_Rg_175A_Es_3kT_Ens05kT.colvars.traj".
colvars: Saving collective variables state to "rest.colvars.state".
colvars: Synchronizing (emptying the buffer of) trajectory file "Run5_IC_Rg_175A_Es_3kT_Ens05kT.colvars.traj".
colvars: Saving collective variables state to "rest.colvars.state".
colvars: Synchronizing (emptying the buffer of) trajectory file "Run5_IC_Rg_175A_Es_3kT_Ens05kT.colvars.traj".
colvars: Saving collective variables state to "rest.colvars.state".
colvars: Synchronizing (emptying the buffer of) trajectory file "Run5_IC_Rg_175A_Es_3kT_Ens05kT.colvars.traj".
colvars: Saving collective variables state to "rest.colvars.state".
colvars: Synchronizing (emptying the buffer of) trajectory file "Run5_IC_Rg_175A_Es_3kT_Ens05kT.colvars.traj".
colvars: Saving collective variables state to "rest.colvars.state".
colvars: Synchronizing (emptying the buffer of) trajectory file "Run5_IC_Rg_175A_Es_3kT_Ens05kT.colvars.traj".
colvars: Saving collective variables state to "rest.colvars.state".
colvars: Synchronizing (emptying the buffer of) trajectory file "Run5_IC_Rg_175A_Es_3kT_Ens05kT.colvars.traj".
colvars: Saving collective variables state to "rest.colvars.state".
colvars: Synchronizing (emptying the buffer of) trajectory file "Run5_IC_Rg_175A_Es_3kT_Ens05kT.colvars.traj".
colvars: Saving collective variables state to "rest.colvars.state".
colvars: Synchronizing (emptying the buffer of) trajectory file "Run5_IC_Rg_175A_Es_3kT_Ens05kT.colvars.traj".
colvars: Saving collective variables state to "rest.colvars.state".
12000000   -3558.0917    928.78059    4687.2559    1515.8422    2971.0302    314.55836     5250 
colvars: Synchronizing (emptying the buffer of) trajectory file "Run5_IC_Rg_175A_Es_3kT_Ens05kT.colvars.traj".
colvars: Saving collective variables state to "rest.colvars.state".
colvars: Synchronizing (emptying the buffer of) trajectory file "Run5_IC_Rg_175A_Es_3kT_Ens05kT.colvars.traj".
colvars: Saving collective variables state to "rest.colvars.state".
colvars: Synchronizing (emptying the buffer of) trajectory file "Run5_IC_Rg_175A_Es_3kT_Ens05kT.colvars.traj".
colvars: Saving collective variables state to "rest.colvars.state".
colvars: Synchronizing (emptying the buffer of) trajectory file "Run5_IC_Rg_175A_Es_3kT_Ens05kT.colvars.traj".
colvars: Saving collective variables state to "rest.colvars.state".
colvars: Synchronizing (emptying the buffer of) trajectory file "Run5_IC_Rg_175A_Es_3kT_Ens05kT.colvars.traj".
colvars: Saving collective variables state to "rest.colvars.state".
colvars: Synchronizing (emptying the buffer of) trajectory file "Run5_IC_Rg_175A_Es_3kT_Ens05kT.colvars.traj".
colvars: Saving collective variables state to "rest.colvars.state".
colvars: Synchronizing (emptying the buffer of) trajectory file "Run5_IC_Rg_175A_Es_3kT_Ens05kT.colvars.traj".
colvars: Saving collective variables state to "rest.colvars.state".
colvars: Synchronizing (emptying the buffer of) trajectory file "Run5_IC_Rg_175A_Es_3kT_Ens05kT.colvars.traj".
colvars: Saving collective variables state to "rest.colvars.state".
colvars: Synchronizing (emptying the buffer of) trajectory file "Run5_IC_Rg_175A_Es_3kT_Ens05kT.colvars.traj".
colvars: Saving collective variables state to "rest.colvars.state".
colvars: Synchronizing (emptying the buffer of) trajectory file "Run5_IC_Rg_175A_Es_3kT_Ens05kT.colvars.traj".
colvars: Saving collective variables state to "rest.colvars.state".
colvars: Synchronizing (emptying the buffer of) trajectory file "Run5_IC_Rg_175A_Es_3kT_Ens05kT.colvars.traj".
colvars: Saving collective variables state to "rest.colvars.state".
colvars: Synchronizing (emptying the buffer of) trajectory file "Run5_IC_Rg_175A_Es_3kT_Ens05kT.colvars.traj".
colvars: Saving collective variables state to "rest.colvars.state".
colvars: Synchronizing (emptying the buffer of) trajectory file "Run5_IC_Rg_175A_Es_3kT_Ens05kT.colvars.traj".
colvars: Saving collective variables state to "rest.colvars.state".
colvars: Synchronizing (emptying the buffer of) trajectory file "Run5_IC_Rg_175A_Es_3kT_Ens05kT.colvars.traj".
colvars: Saving collective variables state to "rest.colvars.state".
colvars: Synchronizing (emptying the buffer of) trajectory file "Run5_IC_Rg_175A_Es_3kT_Ens05kT.colvars.traj".
colvars: Saving collective variables state to "rest.colvars.state".
colvars: Synchronizing (emptying the buffer of) trajectory file "Run5_IC_Rg_175A_Es_3kT_Ens05kT.colvars.traj".
colvars: Saving collective variables state to "rest.colvars.state".
colvars: Synchronizing (emptying the buffer of) trajectory file "Run5_IC_Rg_175A_Es_3kT_Ens05kT.colvars.traj".
colvars: Saving collective variables state to "rest.colvars.state".
colvars: Synchronizing (emptying the buffer of) trajectory file "Run5_IC_Rg_175A_Es_3kT_Ens05kT.colvars.traj".
colvars: Saving collective variables state to "rest.colvars.state".
colvars: Synchronizing (emptying the buffer of) trajectory file "Run5_IC_Rg_175A_Es_3kT_Ens05kT.colvars.traj".
colvars: Saving collective variables state to "rest.colvars.state".
colvars: Synchronizing (emptying the buffer of) trajectory file "Run5_IC_Rg_175A_Es_3kT_Ens05kT.colvars.traj".
colvars: Saving collective variables state to "rest.colvars.state".
13000000   -3588.0574    883.43413    4602.9042    1533.9277    2937.5638    308.89758     5248 
colvars: Synchronizing (emptying the buffer of) trajectory file "Run5_IC_Rg_175A_Es_3kT_Ens05kT.colvars.traj".
colvars: Saving collective variables state to "rest.colvars.state".
colvars: Synchronizing (emptying the buffer of) trajectory file "Run5_IC_Rg_175A_Es_3kT_Ens05kT.colvars.traj".
colvars: Saving collective variables state to "rest.colvars.state".
colvars: Synchronizing (emptying the buffer of) trajectory file "Run5_IC_Rg_175A_Es_3kT_Ens05kT.colvars.traj".
colvars: Saving collective variables state to "rest.colvars.state".
colvars: Synchronizing (emptying the buffer of) trajectory file "Run5_IC_Rg_175A_Es_3kT_Ens05kT.colvars.traj".
colvars: Saving collective variables state to "rest.colvars.state".
colvars: Synchronizing (emptying the buffer of) trajectory file "Run5_IC_Rg_175A_Es_3kT_Ens05kT.colvars.traj".
colvars: Saving collective variables state to "rest.colvars.state".
colvars: Synchronizing (emptying the buffer of) trajectory file "Run5_IC_Rg_175A_Es_3kT_Ens05kT.colvars.traj".
colvars: Saving collective variables state to "rest.colvars.state".
colvars: Synchronizing (emptying the buffer of) trajectory file "Run5_IC_Rg_175A_Es_3kT_Ens05kT.colvars.traj".
colvars: Saving collective variables state to "rest.colvars.state".
colvars: Synchronizing (emptying the buffer of) trajectory file "Run5_IC_Rg_175A_Es_3kT_Ens05kT.colvars.traj".
colvars: Saving collective variables state to "rest.colvars.state".
colvars: Synchronizing (emptying the buffer of) trajectory file "Run5_IC_Rg_175A_Es_3kT_Ens05kT.colvars.traj".
colvars: Saving collective variables state to "rest.colvars.state".
colvars: Synchronizing (emptying the buffer of) trajectory file "Run5_IC_Rg_175A_Es_3kT_Ens05kT.colvars.traj".
colvars: Saving collective variables state to "rest.colvars.state".
colvars: Synchronizing (emptying the buffer of) trajectory file "Run5_IC_Rg_175A_Es_3kT_Ens05kT.colvars.traj".
colvars: Saving collective variables state to "rest.colvars.state".
colvars: Synchronizing (emptying the buffer of) trajectory file "Run5_IC_Rg_175A_Es_3kT_Ens05kT.colvars.traj".
colvars: Saving collective variables state to "rest.colvars.state".
colvars: Synchronizing (emptying the buffer of) trajectory file "Run5_IC_Rg_175A_Es_3kT_Ens05kT.colvars.traj".
colvars: Saving collective variables state to "rest.colvars.state".
colvars: Synchronizing (emptying the buffer of) trajectory file "Run5_IC_Rg_175A_Es_3kT_Ens05kT.colvars.traj".
colvars: Saving collective variables state to "rest.colvars.state".
colvars: Synchronizing (emptying the buffer of) trajectory file "Run5_IC_Rg_175A_Es_3kT_Ens05kT.colvars.traj".
colvars: Saving collective variables state to "rest.colvars.state".
colvars: Synchronizing (emptying the buffer of) trajectory file "Run5_IC_Rg_175A_Es_3kT_Ens05kT.colvars.traj".
colvars: Saving collective variables state to "rest.colvars.state".
colvars: Synchronizing (emptying the buffer of) trajectory file "Run5_IC_Rg_175A_Es_3kT_Ens05kT.colvars.traj".
colvars: Saving collective variables state to "rest.colvars.state".
colvars: Synchronizing (emptying the buffer of) trajectory file "Run5_IC_Rg_175A_Es_3kT_Ens05kT.colvars.traj".
colvars: Saving collective variables state to "rest.colvars.state".
colvars: Synchronizing (emptying the buffer of) trajectory file "Run5_IC_Rg_175A_Es_3kT_Ens05kT.colvars.traj".
colvars: Saving collective variables state to "rest.colvars.state".
colvars: Synchronizing (emptying the buffer of) trajectory file "Run5_IC_Rg_175A_Es_3kT_Ens05kT.colvars.traj".
colvars: Saving collective variables state to "rest.colvars.state".
14000000   -3617.1754    884.63992    4655.7232    1503.7651    2998.0502    312.44222     5243 
colvars: Synchronizing (emptying the buffer of) trajectory file "Run5_IC_Rg_175A_Es_3kT_Ens05kT.colvars.traj".
colvars: Saving collective variables state to "rest.colvars.state".
colvars: Synchronizing (emptying the buffer of) trajectory file "Run5_IC_Rg_175A_Es_3kT_Ens05kT.colvars.traj".
colvars: Saving collective variables state to "rest.colvars.state".
colvars: Synchronizing (emptying the buffer of) trajectory file "Run5_IC_Rg_175A_Es_3kT_Ens05kT.colvars.traj".
colvars: Saving collective variables state to "rest.colvars.state".
colvars: Synchronizing (emptying the buffer of) trajectory file "Run5_IC_Rg_175A_Es_3kT_Ens05kT.colvars.traj".
colvars: Saving collective variables state to "rest.colvars.state".
colvars: Synchronizing (emptying the buffer of) trajectory file "Run5_IC_Rg_175A_Es_3kT_Ens05kT.colvars.traj".
colvars: Saving collective variables state to "rest.colvars.state".
colvars: Synchronizing (emptying the buffer of) trajectory file "Run5_IC_Rg_175A_Es_3kT_Ens05kT.colvars.traj".
colvars: Saving collective variables state to "rest.colvars.state".
colvars: Synchronizing (emptying the buffer of) trajectory file "Run5_IC_Rg_175A_Es_3kT_Ens05kT.colvars.traj".
colvars: Saving collective variables state to "rest.colvars.state".
colvars: Synchronizing (emptying the buffer of) trajectory file "Run5_IC_Rg_175A_Es_3kT_Ens05kT.colvars.traj".
colvars: Saving collective variables state to "rest.colvars.state".
colvars: Synchronizing (emptying the buffer of) trajectory file "Run5_IC_Rg_175A_Es_3kT_Ens05kT.colvars.traj".
colvars: Saving collective variables state to "rest.colvars.state".
colvars: Synchronizing (emptying the buffer of) trajectory file "Run5_IC_Rg_175A_Es_3kT_Ens05kT.colvars.traj".
colvars: Saving collective variables state to "rest.colvars.state".
colvars: Synchronizing (emptying the buffer of) trajectory file "Run5_IC_Rg_175A_Es_3kT_Ens05kT.colvars.traj".
colvars: Saving collective variables state to "rest.colvars.state".
colvars: Synchronizing (emptying the buffer of) trajectory file "Run5_IC_Rg_175A_Es_3kT_Ens05kT.colvars.traj".
colvars: Saving collective variables state to "rest.colvars.state".
colvars: Synchronizing (emptying the buffer of) trajectory file "Run5_IC_Rg_175A_Es_3kT_Ens05kT.colvars.traj".
colvars: Saving collective variables state to "rest.colvars.state".
colvars: Synchronizing (emptying the buffer of) trajectory file "Run5_IC_Rg_175A_Es_3kT_Ens05kT.colvars.traj".
colvars: Saving collective variables state to "rest.colvars.state".
colvars: Synchronizing (emptying the buffer of) trajectory file "Run5_IC_Rg_175A_Es_3kT_Ens05kT.colvars.traj".
colvars: Saving collective variables state to "rest.colvars.state".
colvars: Synchronizing (emptying the buffer of) trajectory file "Run5_IC_Rg_175A_Es_3kT_Ens05kT.colvars.traj".
colvars: Saving collective variables state to "rest.colvars.state".
colvars: Synchronizing (emptying the buffer of) trajectory file "Run5_IC_Rg_175A_Es_3kT_Ens05kT.colvars.traj".
colvars: Saving collective variables state to "rest.colvars.state".
colvars: Synchronizing (emptying the buffer of) trajectory file "Run5_IC_Rg_175A_Es_3kT_Ens05kT.colvars.traj".
colvars: Saving collective variables state to "rest.colvars.state".
colvars: Synchronizing (emptying the buffer of) trajectory file "Run5_IC_Rg_175A_Es_3kT_Ens05kT.colvars.traj".
colvars: Saving collective variables state to "rest.colvars.state".
colvars: Synchronizing (emptying the buffer of) trajectory file "Run5_IC_Rg_175A_Es_3kT_Ens05kT.colvars.traj".
colvars: Saving collective variables state to "rest.colvars.state".
15000000   -3656.8189    835.70209    4555.2623    1587.5364    2904.9846    305.70036     5246 
colvars: Synchronizing (emptying the buffer of) trajectory file "Run5_IC_Rg_175A_Es_3kT_Ens05kT.colvars.traj".
colvars: Saving collective variables state to "rest.colvars.state".
colvars: Synchronizing (emptying the buffer of) trajectory file "Run5_IC_Rg_175A_Es_3kT_Ens05kT.colvars.traj".
colvars: Saving collective variables state to "rest.colvars.state".
colvars: Synchronizing (emptying the buffer of) trajectory file "Run5_IC_Rg_175A_Es_3kT_Ens05kT.colvars.traj".
colvars: Saving collective variables state to "rest.colvars.state".
colvars: Synchronizing (emptying the buffer of) trajectory file "Run5_IC_Rg_175A_Es_3kT_Ens05kT.colvars.traj".
colvars: Saving collective variables state to "rest.colvars.state".
colvars: Synchronizing (emptying the buffer of) trajectory file "Run5_IC_Rg_175A_Es_3kT_Ens05kT.colvars.traj".
colvars: Saving collective variables state to "rest.colvars.state".
colvars: Synchronizing (emptying the buffer of) trajectory file "Run5_IC_Rg_175A_Es_3kT_Ens05kT.colvars.traj".
colvars: Saving collective variables state to "rest.colvars.state".
colvars: Synchronizing (emptying the buffer of) trajectory file "Run5_IC_Rg_175A_Es_3kT_Ens05kT.colvars.traj".
colvars: Saving collective variables state to "rest.colvars.state".
colvars: Synchronizing (emptying the buffer of) trajectory file "Run5_IC_Rg_175A_Es_3kT_Ens05kT.colvars.traj".
colvars: Saving collective variables state to "rest.colvars.state".
colvars: Synchronizing (emptying the buffer of) trajectory file "Run5_IC_Rg_175A_Es_3kT_Ens05kT.colvars.traj".
colvars: Saving collective variables state to "rest.colvars.state".
colvars: Synchronizing (emptying the buffer of) trajectory file "Run5_IC_Rg_175A_Es_3kT_Ens05kT.colvars.traj".
colvars: Saving collective variables state to "rest.colvars.state".
colvars: Synchronizing (emptying the buffer of) trajectory file "Run5_IC_Rg_175A_Es_3kT_Ens05kT.colvars.traj".
colvars: Saving collective variables state to "rest.colvars.state".
colvars: Synchronizing (emptying the buffer of) trajectory file "Run5_IC_Rg_175A_Es_3kT_Ens05kT.colvars.traj".
colvars: Saving collective variables state to "rest.colvars.state".
colvars: Synchronizing (emptying the buffer of) trajectory file "Run5_IC_Rg_175A_Es_3kT_Ens05kT.colvars.traj".
colvars: Saving collective variables state to "rest.colvars.state".
colvars: Synchronizing (emptying the buffer of) trajectory file "Run5_IC_Rg_175A_Es_3kT_Ens05kT.colvars.traj".
colvars: Saving collective variables state to "rest.colvars.state".
colvars: Synchronizing (emptying the buffer of) trajectory file "Run5_IC_Rg_175A_Es_3kT_Ens05kT.colvars.traj".
colvars: Saving collective variables state to "rest.colvars.state".
colvars: Synchronizing (emptying the buffer of) trajectory file "Run5_IC_Rg_175A_Es_3kT_Ens05kT.colvars.traj".
colvars: Saving collective variables state to "rest.colvars.state".
colvars: Synchronizing (emptying the buffer of) trajectory file "Run5_IC_Rg_175A_Es_3kT_Ens05kT.colvars.traj".
colvars: Saving collective variables state to "rest.colvars.state".
colvars: Synchronizing (emptying the buffer of) trajectory file "Run5_IC_Rg_175A_Es_3kT_Ens05kT.colvars.traj".
colvars: Saving collective variables state to "rest.colvars.state".
colvars: Synchronizing (emptying the buffer of) trajectory file "Run5_IC_Rg_175A_Es_3kT_Ens05kT.colvars.traj".
colvars: Saving collective variables state to "rest.colvars.state".
colvars: Synchronizing (emptying the buffer of) trajectory file "Run5_IC_Rg_175A_Es_3kT_Ens05kT.colvars.traj".
colvars: Saving collective variables state to "rest.colvars.state".
16000000   -3726.7678     752.8927    4602.2492    1512.3424     2967.318    308.85362     5249 
colvars: Synchronizing (emptying the buffer of) trajectory file "Run5_IC_Rg_175A_Es_3kT_Ens05kT.colvars.traj".
colvars: Saving collective variables state to "rest.colvars.state".
colvars: Synchronizing (emptying the buffer of) trajectory file "Run5_IC_Rg_175A_Es_3kT_Ens05kT.colvars.traj".
colvars: Saving collective variables state to "rest.colvars.state".
colvars: Synchronizing (emptying the buffer of) trajectory file "Run5_IC_Rg_175A_Es_3kT_Ens05kT.colvars.traj".
colvars: Saving collective variables state to "rest.colvars.state".
colvars: Synchronizing (emptying the buffer of) trajectory file "Run5_IC_Rg_175A_Es_3kT_Ens05kT.colvars.traj".
colvars: Saving collective variables state to "rest.colvars.state".
colvars: Synchronizing (emptying the buffer of) trajectory file "Run5_IC_Rg_175A_Es_3kT_Ens05kT.colvars.traj".
colvars: Saving collective variables state to "rest.colvars.state".
colvars: Synchronizing (emptying the buffer of) trajectory file "Run5_IC_Rg_175A_Es_3kT_Ens05kT.colvars.traj".
colvars: Saving collective variables state to "rest.colvars.state".
colvars: Synchronizing (emptying the buffer of) trajectory file "Run5_IC_Rg_175A_Es_3kT_Ens05kT.colvars.traj".
colvars: Saving collective variables state to "rest.colvars.state".
colvars: Synchronizing (emptying the buffer of) trajectory file "Run5_IC_Rg_175A_Es_3kT_Ens05kT.colvars.traj".
colvars: Saving collective variables state to "rest.colvars.state".
colvars: Synchronizing (emptying the buffer of) trajectory file "Run5_IC_Rg_175A_Es_3kT_Ens05kT.colvars.traj".
colvars: Saving collective variables state to "rest.colvars.state".
colvars: Synchronizing (emptying the buffer of) trajectory file "Run5_IC_Rg_175A_Es_3kT_Ens05kT.colvars.traj".
colvars: Saving collective variables state to "rest.colvars.state".
colvars: Synchronizing (emptying the buffer of) trajectory file "Run5_IC_Rg_175A_Es_3kT_Ens05kT.colvars.traj".
colvars: Saving collective variables state to "rest.colvars.state".
colvars: Synchronizing (emptying the buffer of) trajectory file "Run5_IC_Rg_175A_Es_3kT_Ens05kT.colvars.traj".
colvars: Saving collective variables state to "rest.colvars.state".
colvars: Synchronizing (emptying the buffer of) trajectory file "Run5_IC_Rg_175A_Es_3kT_Ens05kT.colvars.traj".
colvars: Saving collective variables state to "rest.colvars.state".
colvars: Synchronizing (emptying the buffer of) trajectory file "Run5_IC_Rg_175A_Es_3kT_Ens05kT.colvars.traj".
colvars: Saving collective variables state to "rest.colvars.state".
colvars: Synchronizing (emptying the buffer of) trajectory file "Run5_IC_Rg_175A_Es_3kT_Ens05kT.colvars.traj".
colvars: Saving collective variables state to "rest.colvars.state".
colvars: Synchronizing (emptying the buffer of) trajectory file "Run5_IC_Rg_175A_Es_3kT_Ens05kT.colvars.traj".
colvars: Saving collective variables state to "rest.colvars.state".
colvars: Synchronizing (emptying the buffer of) trajectory file "Run5_IC_Rg_175A_Es_3kT_Ens05kT.colvars.traj".
colvars: Saving collective variables state to "rest.colvars.state".
colvars: Synchronizing (emptying the buffer of) trajectory file "Run5_IC_Rg_175A_Es_3kT_Ens05kT.colvars.traj".
colvars: Saving collective variables state to "rest.colvars.state".
colvars: Synchronizing (emptying the buffer of) trajectory file "Run5_IC_Rg_175A_Es_3kT_Ens05kT.colvars.traj".
colvars: Saving collective variables state to "rest.colvars.state".
colvars: Synchronizing (emptying the buffer of) trajectory file "Run5_IC_Rg_175A_Es_3kT_Ens05kT.colvars.traj".
colvars: Saving collective variables state to "rest.colvars.state".
17000000   -3701.0533    786.57437    4674.6481    1567.4853    2920.1424    313.71225     5246 
colvars: Synchronizing (emptying the buffer of) trajectory file "Run5_IC_Rg_175A_Es_3kT_Ens05kT.colvars.traj".
colvars: Saving collective variables state to "rest.colvars.state".
colvars: Synchronizing (emptying the buffer of) trajectory file "Run5_IC_Rg_175A_Es_3kT_Ens05kT.colvars.traj".
colvars: Saving collective variables state to "rest.colvars.state".
colvars: Synchronizing (emptying the buffer of) trajectory file "Run5_IC_Rg_175A_Es_3kT_Ens05kT.colvars.traj".
colvars: Saving collective variables state to "rest.colvars.state".
colvars: Synchronizing (emptying the buffer of) trajectory file "Run5_IC_Rg_175A_Es_3kT_Ens05kT.colvars.traj".
colvars: Saving collective variables state to "rest.colvars.state".
colvars: Synchronizing (emptying the buffer of) trajectory file "Run5_IC_Rg_175A_Es_3kT_Ens05kT.colvars.traj".
colvars: Saving collective variables state to "rest.colvars.state".
colvars: Synchronizing (emptying the buffer of) trajectory file "Run5_IC_Rg_175A_Es_3kT_Ens05kT.colvars.traj".
colvars: Saving collective variables state to "rest.colvars.state".
colvars: Synchronizing (emptying the buffer of) trajectory file "Run5_IC_Rg_175A_Es_3kT_Ens05kT.colvars.traj".
colvars: Saving collective variables state to "rest.colvars.state".
colvars: Synchronizing (emptying the buffer of) trajectory file "Run5_IC_Rg_175A_Es_3kT_Ens05kT.colvars.traj".
colvars: Saving collective variables state to "rest.colvars.state".
colvars: Synchronizing (emptying the buffer of) trajectory file "Run5_IC_Rg_175A_Es_3kT_Ens05kT.colvars.traj".
colvars: Saving collective variables state to "rest.colvars.state".
colvars: Synchronizing (emptying the buffer of) trajectory file "Run5_IC_Rg_175A_Es_3kT_Ens05kT.colvars.traj".
colvars: Saving collective variables state to "rest.colvars.state".
colvars: Synchronizing (emptying the buffer of) trajectory file "Run5_IC_Rg_175A_Es_3kT_Ens05kT.colvars.traj".
colvars: Saving collective variables state to "rest.colvars.state".
colvars: Synchronizing (emptying the buffer of) trajectory file "Run5_IC_Rg_175A_Es_3kT_Ens05kT.colvars.traj".
colvars: Saving collective variables state to "rest.colvars.state".
colvars: Synchronizing (emptying the buffer of) trajectory file "Run5_IC_Rg_175A_Es_3kT_Ens05kT.colvars.traj".
colvars: Saving collective variables state to "rest.colvars.state".
colvars: Synchronizing (emptying the buffer of) trajectory file "Run5_IC_Rg_175A_Es_3kT_Ens05kT.colvars.traj".
colvars: Saving collective variables state to "rest.colvars.state".
colvars: Synchronizing (emptying the buffer of) trajectory file "Run5_IC_Rg_175A_Es_3kT_Ens05kT.colvars.traj".
colvars: Saving collective variables state to "rest.colvars.state".
colvars: Synchronizing (emptying the buffer of) trajectory file "Run5_IC_Rg_175A_Es_3kT_Ens05kT.colvars.traj".
colvars: Saving collective variables state to "rest.colvars.state".
colvars: Synchronizing (emptying the buffer of) trajectory file "Run5_IC_Rg_175A_Es_3kT_Ens05kT.colvars.traj".
colvars: Saving collective variables state to "rest.colvars.state".
colvars: Synchronizing (emptying the buffer of) trajectory file "Run5_IC_Rg_175A_Es_3kT_Ens05kT.colvars.traj".
colvars: Saving collective variables state to "rest.colvars.state".
colvars: Synchronizing (emptying the buffer of) trajectory file "Run5_IC_Rg_175A_Es_3kT_Ens05kT.colvars.traj".
colvars: Saving collective variables state to "rest.colvars.state".
colvars: Synchronizing (emptying the buffer of) trajectory file "Run5_IC_Rg_175A_Es_3kT_Ens05kT.colvars.traj".
colvars: Saving collective variables state to "rest.colvars.state".
18000000   -3633.7805    874.74967    4637.7934    1572.8657    2935.6644    311.23896     5242 
colvars: Synchronizing (emptying the buffer of) trajectory file "Run5_IC_Rg_175A_Es_3kT_Ens05kT.colvars.traj".
colvars: Saving collective variables state to "rest.colvars.state".
colvars: Synchronizing (emptying the buffer of) trajectory file "Run5_IC_Rg_175A_Es_3kT_Ens05kT.colvars.traj".
colvars: Saving collective variables state to "rest.colvars.state".
colvars: Synchronizing (emptying the buffer of) trajectory file "Run5_IC_Rg_175A_Es_3kT_Ens05kT.colvars.traj".
colvars: Saving collective variables state to "rest.colvars.state".
colvars: Synchronizing (emptying the buffer of) trajectory file "Run5_IC_Rg_175A_Es_3kT_Ens05kT.colvars.traj".
colvars: Saving collective variables state to "rest.colvars.state".
[...]
195000000   -3747.6927    651.76335    4630.3615    1513.7214    2885.7346    310.74022     5254 
colvars: Synchronizing (emptying the buffer of) trajectory file "Run5_IC_Rg_175A_Es_3kT_Ens05kT.colvars.traj".
colvars: Saving collective variables state to "rest.colvars.state".
colvars: Synchronizing (emptying the buffer of) trajectory file "Run5_IC_Rg_175A_Es_3kT_Ens05kT.colvars.traj".
colvars: Saving collective variables state to "rest.colvars.state".
colvars: Synchronizing (emptying the buffer of) trajectory file "Run5_IC_Rg_175A_Es_3kT_Ens05kT.colvars.traj".
colvars: Saving collective variables state to "rest.colvars.state".
colvars: Synchronizing (emptying the buffer of) trajectory file "Run5_IC_Rg_175A_Es_3kT_Ens05kT.colvars.traj".
colvars: Saving collective variables state to "rest.colvars.state".
colvars: Synchronizing (emptying the buffer of) trajectory file "Run5_IC_Rg_175A_Es_3kT_Ens05kT.colvars.traj".
colvars: Saving collective variables state to "rest.colvars.state".
colvars: Synchronizing (emptying the buffer of) trajectory file "Run5_IC_Rg_175A_Es_3kT_Ens05kT.colvars.traj".
colvars: Saving collective variables state to "rest.colvars.state".
colvars: Synchronizing (emptying the buffer of) trajectory file "Run5_IC_Rg_175A_Es_3kT_Ens05kT.colvars.traj".
colvars: Saving collective variables state to "rest.colvars.state".
colvars: Synchronizing (emptying the buffer of) trajectory file "Run5_IC_Rg_175A_Es_3kT_Ens05kT.colvars.traj".
colvars: Saving collective variables state to "rest.colvars.state".
colvars: Synchronizing (emptying the buffer of) trajectory file "Run5_IC_Rg_175A_Es_3kT_Ens05kT.colvars.traj".
colvars: Saving collective variables state to "rest.colvars.state".
colvars: Synchronizing (emptying the buffer of) trajectory file "Run5_IC_Rg_175A_Es_3kT_Ens05kT.colvars.traj".
colvars: Saving collective variables state to "rest.colvars.state".
colvars: Synchronizing (emptying the buffer of) trajectory file "Run5_IC_Rg_175A_Es_3kT_Ens05kT.colvars.traj".
colvars: Saving collective variables state to "rest.colvars.state".
colvars: Synchronizing (emptying the buffer of) trajectory file "Run5_IC_Rg_175A_Es_3kT_Ens05kT.colvars.traj".
colvars: Saving collective variables state to "rest.colvars.state".
colvars: Synchronizing (emptying the buffer of) trajectory file "Run5_IC_Rg_175A_Es_3kT_Ens05kT.colvars.traj".
colvars: Saving collective variables state to "rest.colvars.state".
colvars: Synchronizing (emptying the buffer of) trajectory file "Run5_IC_Rg_175A_Es_3kT_Ens05kT.colvars.traj".
colvars: Saving collective variables state to "rest.colvars.state".
colvars: Synchronizing (emptying the buffer of) trajectory file "Run5_IC_Rg_175A_Es_3kT_Ens05kT.colvars.traj".
colvars: Saving collective variables state to "rest.colvars.state".
colvars: Synchronizing (emptying the buffer of) trajectory file "Run5_IC_Rg_175A_Es_3kT_Ens05kT.colvars.traj".
colvars: Saving collective variables state to "rest.colvars.state".
colvars: Synchronizing (emptying the buffer of) trajectory file "Run5_IC_Rg_175A_Es_3kT_Ens05kT.colvars.traj".
colvars: Saving collective variables state to "rest.colvars.state".
colvars: Synchronizing (emptying the buffer of) trajectory file "Run5_IC_Rg_175A_Es_3kT_Ens05kT.colvars.traj".
colvars: Saving collective variables state to "rest.colvars.state".
colvars: Synchronizing (emptying the buffer of) trajectory file "Run5_IC_Rg_175A_Es_3kT_Ens05kT.colvars.traj".
colvars: Saving collective variables state to "rest.colvars.state".
colvars: Synchronizing (emptying the buffer of) trajectory file "Run5_IC_Rg_175A_Es_3kT_Ens05kT.colvars.traj".
colvars: Saving collective variables state to "rest.colvars.state".
196000000   -3799.7552    656.42876    4631.7671    1583.7789    2872.4051    310.83454     5258 
colvars: Synchronizing (emptying the buffer of) trajectory file "Run5_IC_Rg_175A_Es_3kT_Ens05kT.colvars.traj".
colvars: Saving collective variables state to "rest.colvars.state".
colvars: Synchronizing (emptying the buffer of) trajectory file "Run5_IC_Rg_175A_Es_3kT_Ens05kT.colvars.traj".
colvars: Saving collective variables state to "rest.colvars.state".
colvars: Synchronizing (emptying the buffer of) trajectory file "Run5_IC_Rg_175A_Es_3kT_Ens05kT.colvars.traj".
colvars: Saving collective variables state to "rest.colvars.state".
colvars: Synchronizing (emptying the buffer of) trajectory file "Run5_IC_Rg_175A_Es_3kT_Ens05kT.colvars.traj".
colvars: Saving collective variables state to "rest.colvars.state".
colvars: Synchronizing (emptying the buffer of) trajectory file "Run5_IC_Rg_175A_Es_3kT_Ens05kT.colvars.traj".
colvars: Saving collective variables state to "rest.colvars.state".
colvars: Synchronizing (emptying the buffer of) trajectory file "Run5_IC_Rg_175A_Es_3kT_Ens05kT.colvars.traj".
colvars: Saving collective variables state to "rest.colvars.state".
colvars: Synchronizing (emptying the buffer of) trajectory file "Run5_IC_Rg_175A_Es_3kT_Ens05kT.colvars.traj".
colvars: Saving collective variables state to "rest.colvars.state".
colvars: Synchronizing (emptying the buffer of) trajectory file "Run5_IC_Rg_175A_Es_3kT_Ens05kT.colvars.traj".
colvars: Saving collective variables state to "rest.colvars.state".
colvars: Synchronizing (emptying the buffer of) trajectory file "Run5_IC_Rg_175A_Es_3kT_Ens05kT.colvars.traj".
colvars: Saving collective variables state to "rest.colvars.state".
colvars: Synchronizing (emptying the buffer of) trajectory file "Run5_IC_Rg_175A_Es_3kT_Ens05kT.colvars.traj".
colvars: Saving collective variables state to "rest.colvars.state".
colvars: Synchronizing (emptying the buffer of) trajectory file "Run5_IC_Rg_175A_Es_3kT_Ens05kT.colvars.traj".
colvars: Saving collective variables state to "rest.colvars.state".
colvars: Synchronizing (emptying the buffer of) trajectory file "Run5_IC_Rg_175A_Es_3kT_Ens05kT.colvars.traj".
colvars: Saving collective variables state to "rest.colvars.state".
colvars: Synchronizing (emptying the buffer of) trajectory file "Run5_IC_Rg_175A_Es_3kT_Ens05kT.colvars.traj".
colvars: Saving collective variables state to "rest.colvars.state".
colvars: Synchronizing (emptying the buffer of) trajectory file "Run5_IC_Rg_175A_Es_3kT_Ens05kT.colvars.traj".
colvars: Saving collective variables state to "rest.colvars.state".
colvars: Synchronizing (emptying the buffer of) trajectory file "Run5_IC_Rg_175A_Es_3kT_Ens05kT.colvars.traj".
colvars: Saving collective variables state to "rest.colvars.state".
colvars: Synchronizing (emptying the buffer of) trajectory file "Run5_IC_Rg_175A_Es_3kT_Ens05kT.colvars.traj".
colvars: Saving collective variables state to "rest.colvars.state".
colvars: Synchronizing (emptying the buffer of) trajectory file "Run5_IC_Rg_175A_Es_3kT_Ens05kT.colvars.traj".
colvars: Saving collective variables state to "rest.colvars.state".
colvars: Synchronizing (emptying the buffer of) trajectory file "Run5_IC_Rg_175A_Es_3kT_Ens05kT.colvars.traj".
colvars: Saving collective variables state to "rest.colvars.state".
colvars: Synchronizing (emptying the buffer of) trajectory file "Run5_IC_Rg_175A_Es_3kT_Ens05kT.colvars.traj".
colvars: Saving collective variables state to "rest.colvars.state".
colvars: Synchronizing (emptying the buffer of) trajectory file "Run5_IC_Rg_175A_Es_3kT_Ens05kT.colvars.traj".
colvars: Saving collective variables state to "rest.colvars.state".
197000000   -3783.7384    631.38629    4651.5653    1576.0059    2839.1188    312.16318     5251 
colvars: Synchronizing (emptying the buffer of) trajectory file "Run5_IC_Rg_175A_Es_3kT_Ens05kT.colvars.traj".
colvars: Saving collective variables state to "rest.colvars.state".
colvars: Synchronizing (emptying the buffer of) trajectory file "Run5_IC_Rg_175A_Es_3kT_Ens05kT.colvars.traj".
colvars: Saving collective variables state to "rest.colvars.state".
colvars: Synchronizing (emptying the buffer of) trajectory file "Run5_IC_Rg_175A_Es_3kT_Ens05kT.colvars.traj".
colvars: Saving collective variables state to "rest.colvars.state".
colvars: Synchronizing (emptying the buffer of) trajectory file "Run5_IC_Rg_175A_Es_3kT_Ens05kT.colvars.traj".
colvars: Saving collective variables state to "rest.colvars.state".
colvars: Synchronizing (emptying the buffer of) trajectory file "Run5_IC_Rg_175A_Es_3kT_Ens05kT.colvars.traj".
colvars: Saving collective variables state to "rest.colvars.state".
colvars: Synchronizing (emptying the buffer of) trajectory file "Run5_IC_Rg_175A_Es_3kT_Ens05kT.colvars.traj".
colvars: Saving collective variables state to "rest.colvars.state".
colvars: Synchronizing (emptying the buffer of) trajectory file "Run5_IC_Rg_175A_Es_3kT_Ens05kT.colvars.traj".
colvars: Saving collective variables state to "rest.colvars.state".
colvars: Synchronizing (emptying the buffer of) trajectory file "Run5_IC_Rg_175A_Es_3kT_Ens05kT.colvars.traj".
colvars: Saving collective variables state to "rest.colvars.state".
colvars: Synchronizing (emptying the buffer of) trajectory file "Run5_IC_Rg_175A_Es_3kT_Ens05kT.colvars.traj".
colvars: Saving collective variables state to "rest.colvars.state".
colvars: Synchronizing (emptying the buffer of) trajectory file "Run5_IC_Rg_175A_Es_3kT_Ens05kT.colvars.traj".
colvars: Saving collective variables state to "rest.colvars.state".
colvars: Synchronizing (emptying the buffer of) trajectory file "Run5_IC_Rg_175A_Es_3kT_Ens05kT.colvars.traj".
colvars: Saving collective variables state to "rest.colvars.state".
colvars: Synchronizing (emptying the buffer of) trajectory file "Run5_IC_Rg_175A_Es_3kT_Ens05kT.colvars.traj".
colvars: Saving collective variables state to "rest.colvars.state".
colvars: Synchronizing (emptying the buffer of) trajectory file "Run5_IC_Rg_175A_Es_3kT_Ens05kT.colvars.traj".
colvars: Saving collective variables state to "rest.colvars.state".
colvars: Synchronizing (emptying the buffer of) trajectory file "Run5_IC_Rg_175A_Es_3kT_Ens05kT.colvars.traj".
colvars: Saving collective variables state to "rest.colvars.state".
colvars: Synchronizing (emptying the buffer of) trajectory file "Run5_IC_Rg_175A_Es_3kT_Ens05kT.colvars.traj".
colvars: Saving collective variables state to "rest.colvars.state".
colvars: Synchronizing (emptying the buffer of) trajectory file "Run5_IC_Rg_175A_Es_3kT_Ens05kT.colvars.traj".
colvars: Saving collective variables state to "rest.colvars.state".
colvars: Synchronizing (emptying the buffer of) trajectory file "Run5_IC_Rg_175A_Es_3kT_Ens05kT.colvars.traj".
colvars: Saving collective variables state to "rest.colvars.state".
colvars: Synchronizing (emptying the buffer of) trajectory file "Run5_IC_Rg_175A_Es_3kT_Ens05kT.colvars.traj".
colvars: Saving collective variables state to "rest.colvars.state".
colvars: Synchronizing (emptying the buffer of) trajectory file "Run5_IC_Rg_175A_Es_3kT_Ens05kT.colvars.traj".
colvars: Saving collective variables state to "rest.colvars.state".
colvars: Synchronizing (emptying the buffer of) trajectory file "Run5_IC_Rg_175A_Es_3kT_Ens05kT.colvars.traj".
colvars: Saving collective variables state to "rest.colvars.state".
198000000   -3712.4368    681.45429    4658.5829      1569.32    2824.5711    312.63413     5253 
colvars: Synchronizing (emptying the buffer of) trajectory file "Run5_IC_Rg_175A_Es_3kT_Ens05kT.colvars.traj".
colvars: Saving collective variables state to "rest.colvars.state".
colvars: Synchronizing (emptying the buffer of) trajectory file "Run5_IC_Rg_175A_Es_3kT_Ens05kT.colvars.traj".
colvars: Saving collective variables state to "rest.colvars.state".
colvars: Synchronizing (emptying the buffer of) trajectory file "Run5_IC_Rg_175A_Es_3kT_Ens05kT.colvars.traj".
colvars: Saving collective variables state to "rest.colvars.state".
colvars: Synchronizing (emptying the buffer of) trajectory file "Run5_IC_Rg_175A_Es_3kT_Ens05kT.colvars.traj".
colvars: Saving collective variables state to "rest.colvars.state".
colvars: Synchronizing (emptying the buffer of) trajectory file "Run5_IC_Rg_175A_Es_3kT_Ens05kT.colvars.traj".
colvars: Saving collective variables state to "rest.colvars.state".
colvars: Synchronizing (emptying the buffer of) trajectory file "Run5_IC_Rg_175A_Es_3kT_Ens05kT.colvars.traj".
colvars: Saving collective variables state to "rest.colvars.state".
colvars: Synchronizing (emptying the buffer of) trajectory file "Run5_IC_Rg_175A_Es_3kT_Ens05kT.colvars.traj".
colvars: Saving collective variables state to "rest.colvars.state".
colvars: Synchronizing (emptying the buffer of) trajectory file "Run5_IC_Rg_175A_Es_3kT_Ens05kT.colvars.traj".
colvars: Saving collective variables state to "rest.colvars.state".
colvars: Synchronizing (emptying the buffer of) trajectory file "Run5_IC_Rg_175A_Es_3kT_Ens05kT.colvars.traj".
colvars: Saving collective variables state to "rest.colvars.state".
colvars: Synchronizing (emptying the buffer of) trajectory file "Run5_IC_Rg_175A_Es_3kT_Ens05kT.colvars.traj".
colvars: Saving collective variables state to "rest.colvars.state".
colvars: Synchronizing (emptying the buffer of) trajectory file "Run5_IC_Rg_175A_Es_3kT_Ens05kT.colvars.traj".
colvars: Saving collective variables state to "rest.colvars.state".
colvars: Synchronizing (emptying the buffer of) trajectory file "Run5_IC_Rg_175A_Es_3kT_Ens05kT.colvars.traj".
colvars: Saving collective variables state to "rest.colvars.state".
colvars: Synchronizing (emptying the buffer of) trajectory file "Run5_IC_Rg_175A_Es_3kT_Ens05kT.colvars.traj".
colvars: Saving collective variables state to "rest.colvars.state".
colvars: Synchronizing (emptying the buffer of) trajectory file "Run5_IC_Rg_175A_Es_3kT_Ens05kT.colvars.traj".
colvars: Saving collective variables state to "rest.colvars.state".
colvars: Synchronizing (emptying the buffer of) trajectory file "Run5_IC_Rg_175A_Es_3kT_Ens05kT.colvars.traj".
colvars: Saving collective variables state to "rest.colvars.state".
colvars: Synchronizing (emptying the buffer of) trajectory file "Run5_IC_Rg_175A_Es_3kT_Ens05kT.colvars.traj".
colvars: Saving collective variables state to "rest.colvars.state".
colvars: Synchronizing (emptying the buffer of) trajectory file "Run5_IC_Rg_175A_Es_3kT_Ens05kT.colvars.traj".
colvars: Saving collective variables state to "rest.colvars.state".
colvars: Synchronizing (emptying the buffer of) trajectory file "Run5_IC_Rg_175A_Es_3kT_Ens05kT.colvars.traj".
colvars: Saving collective variables state to "rest.colvars.state".
colvars: Synchronizing (emptying the buffer of) trajectory file "Run5_IC_Rg_175A_Es_3kT_Ens05kT.colvars.traj".
colvars: Saving collective variables state to "rest.colvars.state".
colvars: Synchronizing (emptying the buffer of) trajectory file "Run5_IC_Rg_175A_Es_3kT_Ens05kT.colvars.traj".
colvars: Saving collective variables state to "rest.colvars.state".
199000000   -3806.1051    614.27608     4659.423    1499.4862     2920.895    312.69051     5253 
colvars: Synchronizing (emptying the buffer of) trajectory file "Run5_IC_Rg_175A_Es_3kT_Ens05kT.colvars.traj".
colvars: Saving collective variables state to "rest.colvars.state".
colvars: Synchronizing (emptying the buffer of) trajectory file "Run5_IC_Rg_175A_Es_3kT_Ens05kT.colvars.traj".
colvars: Saving collective variables state to "rest.colvars.state".
colvars: Synchronizing (emptying the buffer of) trajectory file "Run5_IC_Rg_175A_Es_3kT_Ens05kT.colvars.traj".
colvars: Saving collective variables state to "rest.colvars.state".
colvars: Synchronizing (emptying the buffer of) trajectory file "Run5_IC_Rg_175A_Es_3kT_Ens05kT.colvars.traj".
colvars: Saving collective variables state to "rest.colvars.state".
colvars: Synchronizing (emptying the buffer of) trajectory file "Run5_IC_Rg_175A_Es_3kT_Ens05kT.colvars.traj".
colvars: Saving collective variables state to "rest.colvars.state".
colvars: Synchronizing (emptying the buffer of) trajectory file "Run5_IC_Rg_175A_Es_3kT_Ens05kT.colvars.traj".
colvars: Saving collective variables state to "rest.colvars.state".
colvars: Synchronizing (emptying the buffer of) trajectory file "Run5_IC_Rg_175A_Es_3kT_Ens05kT.colvars.traj".
colvars: Saving collective variables state to "rest.colvars.state".
colvars: Synchronizing (emptying the buffer of) trajectory file "Run5_IC_Rg_175A_Es_3kT_Ens05kT.colvars.traj".
colvars: Saving collective variables state to "rest.colvars.state".
colvars: Synchronizing (emptying the buffer of) trajectory file "Run5_IC_Rg_175A_Es_3kT_Ens05kT.colvars.traj".
colvars: Saving collective variables state to "rest.colvars.state".
colvars: Synchronizing (emptying the buffer of) trajectory file "Run5_IC_Rg_175A_Es_3kT_Ens05kT.colvars.traj".
colvars: Saving collective variables state to "rest.colvars.state".
colvars: Synchronizing (emptying the buffer of) trajectory file "Run5_IC_Rg_175A_Es_3kT_Ens05kT.colvars.traj".
colvars: Saving collective variables state to "rest.colvars.state".
colvars: Synchronizing (emptying the buffer of) trajectory file "Run5_IC_Rg_175A_Es_3kT_Ens05kT.colvars.traj".
colvars: Saving collective variables state to "rest.colvars.state".
colvars: Synchronizing (emptying the buffer of) trajectory file "Run5_IC_Rg_175A_Es_3kT_Ens05kT.colvars.traj".
colvars: Saving collective variables state to "rest.colvars.state".
colvars: Synchronizing (emptying the buffer of) trajectory file "Run5_IC_Rg_175A_Es_3kT_Ens05kT.colvars.traj".
colvars: Saving collective variables state to "rest.colvars.state".
colvars: Synchronizing (emptying the buffer of) trajectory file "Run5_IC_Rg_175A_Es_3kT_Ens05kT.colvars.traj".
colvars: Saving collective variables state to "rest.colvars.state".
colvars: Synchronizing (emptying the buffer of) trajectory file "Run5_IC_Rg_175A_Es_3kT_Ens05kT.colvars.traj".
colvars: Saving collective variables state to "rest.colvars.state".
colvars: Synchronizing (emptying the buffer of) trajectory file "Run5_IC_Rg_175A_Es_3kT_Ens05kT.colvars.traj".
colvars: Saving collective variables state to "rest.colvars.state".
colvars: Synchronizing (emptying the buffer of) trajectory file "Run5_IC_Rg_175A_Es_3kT_Ens05kT.colvars.traj".
colvars: Saving collective variables state to "rest.colvars.state".
colvars: Synchronizing (emptying the buffer of) trajectory file "Run5_IC_Rg_175A_Es_3kT_Ens05kT.colvars.traj".
colvars: Saving collective variables state to "rest.colvars.state".
colvars: Synchronizing (emptying the buffer of) trajectory file "Run5_IC_Rg_175A_Es_3kT_Ens05kT.colvars.traj".
colvars: Saving collective variables state to "rest.colvars.state".
200000000   -3783.4738    613.05318    4586.0251    1550.2817    2846.2452    307.76483     5245 
colvars: Saving collective variables state to "Run5_IC_Rg_175A_Es_3kT_Ens05kT.colvars.state".
Loop time of 69952 on 8 procs for 200000000 steps with 5000 atoms

Performance: 6175.664 ns/day, 0.004 hours/ns, 2859.104 timesteps/s
99.7% CPU use with 8 MPI tasks x no OpenMP threads

MPI task timing breakdown:
Section |  min time  |  avg time  |  max time  |%varavg| %total
---------------------------------------------------------------
Pair    | 23480      | 25607      | 27693      | 779.2 | 36.61
Bond    | 3975.5     | 4001.9     | 4071.3     |  43.7 |  5.72
Neigh   | 8910.2     | 8957.6     | 9000.1     |  30.3 | 12.81
Comm    | 10157      | 12619      | 15171      |1367.3 | 18.04
Output  | 1.1708     | 1.1709     | 1.1711     |   0.0 |  0.00
Modify  | 16054      | 16743      | 17416      | 319.4 | 23.93
Other   |            | 2022       |            |       |  2.89

Nlocal:    625 ave 652 max 603 min
Histogram: 1 1 0 3 0 0 1 1 0 1
Nghost:    776.75 ave 872 max 717 min
Histogram: 2 0 1 2 1 0 0 1 0 1
Neighs:    12414.6 ave 13303 max 11027 min
Histogram: 2 0 0 0 0 1 1 1 0 3

Total # of neighbors = 99317
Ave neighs/atom = 19.8634
Ave special neighs/atom = 7.286
Neighbor list builds = 10491140
Dangerous builds = 0
write_restart final_state_${fName}.restart
write_restart final_state_Run5_IC_Rg_175A_Es_3kT_Ens05kT.restart
colvars: Resetting the Collective Variables module.

Please see the log.cite file for references relevant to this simulation

Total wall time: 19:25:54
