LAMMPS (5 Jun 2019)
Reading data file ...
  orthogonal box = (-250 -250 -250) to (250 250 250)
  2 by 2 by 2 MPI processor grid
  reading atoms ...
  5000 atoms
  scanning bonds ...
  11 = max bonds/atom
  scanning angles ...
  1 = max angles/atom
  reading bonds ...
  4800 bonds
  reading angles ...
  4600 angles
Finding 1-2 1-3 1-4 neighbors ...
  special bond factors lj:   0          0          0         
  special bond factors coul: 0          0          0         
  2 = max # of 1-2 neighbors
  2 = max # of 1-3 neighbors
  4 = max # of 1-4 neighbors
  16 = max # of special neighbors
  special bonds CPU = 0.0205986 secs
  read_data CPU = 0.0639666 secs
Finding 1-2 1-3 1-4 neighbors ...
  special bond factors lj:   1          1          1         
  special bond factors coul: 0          0          0         
  2 = max # of 1-2 neighbors
  2 = max # of 1-3 neighbors
  4 = max # of 1-4 neighbors
  16 = max # of special neighbors
  special bonds CPU = 0.000346048 secs
WARNING: Using 'neigh_modify every 1 delay 0 check yes' setting during minimization (../min.cpp:168)
Neighbor list info ...
  update every 1 steps, delay 0 steps, check yes
  max neighbors/atom: 2000, page size: 100000
  master list distance cutoff = 26.9
  ghost atom cutoff = 26.9
  binsize = 13.45, bins = 38 38 38
  1 neighbor lists, perpetual/occasional/extra = 1 0 0
  (1) pair lj/cut, perpetual
      attributes: half, newton on
      pair build: half/bin/newton
      stencil: half/bin/3d/newton
      bin: standard
Setting up cg style minimization ...
  Unit style    : real
  Current step  : 0
Per MPI rank memory allocation (min/avg/max) = 9.435 | 9.491 | 9.812 Mbytes
Step Temp E_pair E_mol TotEng Press 
       0            0     23223661       360000     23583661    51500.021 
    2716            0   -3008.2836    1917.3655   -1090.9181  -0.21495914 
Loop time of 0.8268 on 8 procs for 2716 steps with 5000 atoms

99.7% CPU use with 8 MPI tasks x no OpenMP threads

Minimization stats:
  Stopping criterion = energy tolerance
  Energy initial, next-to-last, final = 
         23583660.6342     -1090.81202443     -1090.91805571
  Force two-norm initial, final = 234700 1.18135
  Force max component initial, final = 11733 0.255402
  Final line search alpha, max atom move = 0.247917 0.0633185
  Iterations, force evaluations = 2716 3368

MPI task timing breakdown:
Section |  min time  |  avg time  |  max time  |%varavg| %total
---------------------------------------------------------------
Pair    | 0.20756    | 0.27869    | 0.40224    |  10.9 | 33.71
Bond    | 0.065729   | 0.077637   | 0.093291   |   3.0 |  9.39
Neigh   | 0.091021   | 0.092629   | 0.094071   |   0.4 | 11.20
Comm    | 0.1058     | 0.24761    | 0.32671    |  13.8 | 29.95
Output  | 0          | 0          | 0          |   0.0 |  0.00
Modify  | 0          | 0          | 0          |   0.0 |  0.00
Other   |            | 0.1302     |            |       | 15.75

Nlocal:    625 ave 773 max 535 min
Histogram: 2 0 1 2 1 1 0 0 0 1
Nghost:    362.75 ave 447 max 318 min
Histogram: 3 2 0 0 0 0 1 1 0 1
Neighs:    5198.25 ave 7858 max 3700 min
Histogram: 1 2 1 2 0 1 0 0 0 1

Total # of neighbors = 41586
Ave neighs/atom = 8.3172
Ave special neighs/atom = 5.52
Neighbor list builds = 201
Dangerous builds = 0
Setting up Verlet run ...
  Unit style    : real
  Current step  : 2716
  Time step     : 1
Per MPI rank memory allocation (min/avg/max) = 8.318 | 8.368 | 8.687 Mbytes
Step Temp E_pair E_mol TotEng Press 
    2716            0   -3008.2836    1917.3655   -1090.9181  -0.21495914 
   12716    313.88864   -2347.0543    3860.8751    6191.0972   -2.2626678 
Loop time of 1.71218 on 8 procs for 10000 steps with 5000 atoms

Performance: 504.620 ns/day, 0.048 hours/ns, 5840.508 timesteps/s
99.7% CPU use with 8 MPI tasks x no OpenMP threads

MPI task timing breakdown:
Section |  min time  |  avg time  |  max time  |%varavg| %total
---------------------------------------------------------------
Pair    | 0.37513    | 0.5249     | 0.79933    |  17.3 | 30.66
Bond    | 0.16098    | 0.18764    | 0.2276     |   4.7 | 10.96
Neigh   | 0.0093795  | 0.0096255  | 0.009836   |   0.2 |  0.56
Comm    | 0.27215    | 0.59058    | 0.76092    |  20.6 | 34.49
Output  | 5.1973e-05 | 5.7927e-05 | 6.2273e-05 |   0.0 |  0.00
Modify  | 0.24111    | 0.28662    | 0.34628    |   5.8 | 16.74
Other   |            | 0.1127     |            |       |  6.59

Nlocal:    625 ave 776 max 534 min
Histogram: 2 0 1 2 1 1 0 0 0 1
Nghost:    362.875 ave 453 max 317 min
Histogram: 4 1 0 0 0 1 0 1 0 1
Neighs:    5143 ave 7829 max 3658 min
Histogram: 1 2 1 2 0 1 0 0 0 1

Total # of neighbors = 41144
Ave neighs/atom = 8.2288
Ave special neighs/atom = 5.52
Neighbor list builds = 19
Dangerous builds = 0
1000 atoms in group rxnSites
Neighbor list info ...
  update every 1 steps, delay 1 steps, check yes
  max neighbors/atom: 2000, page size: 100000
  master list distance cutoff = 26.9
  ghost atom cutoff = 26.9
  binsize = 13.45, bins = 38 38 38
  2 neighbor lists, perpetual/occasional/extra = 1 1 0
  (1) pair lj/cut, perpetual
      attributes: half, newton on
      pair build: half/bin/newton
      stencil: half/bin/3d/newton
      bin: standard
  (2) fix bond/create/random, occasional, copy from (1)
      attributes: half, newton on
      pair build: copy
      stencil: none
      bin: none
Setting up Verlet run ...
  Unit style    : real
  Current step  : 0
  Time step     : 25
colvars: Creating proxy instance
colvars: ----------------------------------------------------------------------
colvars: Initializing the collective variables module, version "2019-04-26".
colvars: Please cite Fiorin et al, Mol Phys 2013:
colvars:  http://dx.doi.org/10.1080/00268976.2013.813594
colvars: in any publication based on this calculation.
colvars: Using LAMMPS interface, version "2019-04-09".
colvars: ----------------------------------------------------------------------
colvars: Reading new configuration from file "N200_Rg_IC_175A.colvars":
colvars: # smp = on [default]
colvars: # colvarsTrajFrequency = 50000
colvars: # colvarsRestartFrequency = 50000
colvars: # scriptedColvarForces = off [default]
colvars: # scriptingAfterBiases = off [default]
colvars: ----------------------------------------------------------------------
colvars:   Initializing a new collective variable.
colvars:   # name = "Rg1"
colvars:   Initializing a new "gyration" component.
colvars:     # name = "" [default]
colvars:     # componentCoeff = 1 [default]
colvars:     # componentExp = 1 [default]
colvars:     # period = 0 [default]
colvars:     # wrapAround = 0 [default]
colvars:     # forceNoPBC = off [default]
colvars:     # scalable = on [default]
colvars:       Initializing atom group "atoms".
colvars:       # name = "" [default]
colvars:       # centerReference = off [default]
colvars:       # rotateReference = off [default]
colvars:       # atomsOfGroup = "" [default]
colvars:       # indexGroup = "" [default]
colvars:       # psfSegID =  [default]
colvars:       # atomsFile = "" [default]
colvars:       # dummyAtom = ( 0 , 0 , 0 ) [default]
colvars:       # enableForces = on [default]
colvars:       # enableFitGradients = on [default]
colvars:       # printAtomIDs = off [default]
colvars:       Atom group "atoms" defined with 200 atoms requested.
colvars:   All components initialized.
colvars:   # timeStepFactor = 1 [default]
colvars:   # width = 1 [default]
colvars:   # lowerBoundary = 0
colvars:   # upperBoundary = 200
colvars:   # hardLowerBoundary = off [default]
colvars:   # hardUpperBoundary = on
colvars:   # expandBoundaries = off [default]
colvars:   # extendedLagrangian = off [default]
colvars:   # outputValue = on [default]
colvars:   # outputVelocity = off [default]
colvars:   # outputTotalForce = off [default]
colvars:   # outputAppliedForce = off [default]
colvars:   # subtractAppliedForce = off [default]
colvars:   # runAve = off [default]
colvars:   # corrFunc = off [default]
colvars: ----------------------------------------------------------------------
colvars: Collective variables initialized, 1 in total.
colvars: ----------------------------------------------------------------------
colvars:   Initializing a new "metadynamics" instance.
colvars:   # name = "meta-radgy"
colvars:   # colvars = { Rg1 }
colvars:   # outputEnergy = off [default]
colvars:   # timeStepFactor = 1 [default]
colvars:   # writeTISamples = off [default]
colvars:   # writeTIPMF = off [default]
colvars:   # hillWeight = 0.2
colvars:   # newHillFrequency = 500
colvars:   # hillWidth = 1
colvars:   Half-widths of the Gaussian hills (sigma's):
colvars:   Rg1: 0.5
colvars:   # multipleReplicas = off [default]
colvars:   # useGrids = on [default]
colvars:   # gridsUpdateFrequency = 500 [default]
colvars:   # rebinGrids = off [default]
colvars:   # keepHills = off [default]
colvars:   # writeFreeEnergyFile = on [default]
colvars:   # keepFreeEnergyFiles = off [default]
colvars:   # writeHillsTrajectory = on
colvars:   # wellTempered = on
colvars:   # biasTemperature = 310
colvars:   Well-tempered metadynamics is used.
colvars:   The bias temperature is 310.
colvars:   # ebMeta = off [default]
colvars: ----------------------------------------------------------------------
colvars: Collective variables biases initialized, 1 in total.
colvars: ----------------------------------------------------------------------
colvars: Collective variables module (re)initialized.
colvars: ----------------------------------------------------------------------
colvars: The restart output state file will be "rest.colvars.state".
colvars: The final output state file will be "Run1_IC_Rg_175A_Es_3kT_Ens05kT.colvars.state".
colvars: Writing to colvar trajectory file "Run1_IC_Rg_175A_Es_3kT_Ens05kT.colvars.traj".
colvars: Re-initialized atom group for variable "Rg1":0/0. 200 atoms: total mass = 200000, total charge = 0.
Per MPI rank memory allocation (min/avg/max) = 10.35 | 10.51 | 11.05 Mbytes
Step E_pair PotEng KinEng E_bond E_angle Temp Bonds 
       0   -2347.0543    1513.8208    4677.2764    1644.3866    2216.4885    313.88864     4800 
colvars: Synchronizing (emptying the buffer of) trajectory file "Run1_IC_Rg_175A_Es_3kT_Ens05kT.colvars.traj".
colvars: Saving collective variables state to "rest.colvars.state".
colvars: Synchronizing (emptying the buffer of) trajectory file "Run1_IC_Rg_175A_Es_3kT_Ens05kT.colvars.traj".
colvars: Saving collective variables state to "rest.colvars.state".
colvars: Synchronizing (emptying the buffer of) trajectory file "Run1_IC_Rg_175A_Es_3kT_Ens05kT.colvars.traj".
colvars: Saving collective variables state to "rest.colvars.state".
colvars: Synchronizing (emptying the buffer of) trajectory file "Run1_IC_Rg_175A_Es_3kT_Ens05kT.colvars.traj".
colvars: Saving collective variables state to "rest.colvars.state".
colvars: Synchronizing (emptying the buffer of) trajectory file "Run1_IC_Rg_175A_Es_3kT_Ens05kT.colvars.traj".
colvars: Saving collective variables state to "rest.colvars.state".
colvars: Synchronizing (emptying the buffer of) trajectory file "Run1_IC_Rg_175A_Es_3kT_Ens05kT.colvars.traj".
colvars: Saving collective variables state to "rest.colvars.state".
colvars: Synchronizing (emptying the buffer of) trajectory file "Run1_IC_Rg_175A_Es_3kT_Ens05kT.colvars.traj".
colvars: Saving collective variables state to "rest.colvars.state".
colvars: Synchronizing (emptying the buffer of) trajectory file "Run1_IC_Rg_175A_Es_3kT_Ens05kT.colvars.traj".
colvars: Saving collective variables state to "rest.colvars.state".
colvars: Synchronizing (emptying the buffer of) trajectory file "Run1_IC_Rg_175A_Es_3kT_Ens05kT.colvars.traj".
colvars: Saving collective variables state to "rest.colvars.state".
colvars: Synchronizing (emptying the buffer of) trajectory file "Run1_IC_Rg_175A_Es_3kT_Ens05kT.colvars.traj".
colvars: Saving collective variables state to "rest.colvars.state".
colvars: Synchronizing (emptying the buffer of) trajectory file "Run1_IC_Rg_175A_Es_3kT_Ens05kT.colvars.traj".
colvars: Saving collective variables state to "rest.colvars.state".
colvars: Synchronizing (emptying the buffer of) trajectory file "Run1_IC_Rg_175A_Es_3kT_Ens05kT.colvars.traj".
colvars: Saving collective variables state to "rest.colvars.state".
colvars: Synchronizing (emptying the buffer of) trajectory file "Run1_IC_Rg_175A_Es_3kT_Ens05kT.colvars.traj".
colvars: Saving collective variables state to "rest.colvars.state".
colvars: Synchronizing (emptying the buffer of) trajectory file "Run1_IC_Rg_175A_Es_3kT_Ens05kT.colvars.traj".
colvars: Saving collective variables state to "rest.colvars.state".
colvars: Synchronizing (emptying the buffer of) trajectory file "Run1_IC_Rg_175A_Es_3kT_Ens05kT.colvars.traj".
colvars: Saving collective variables state to "rest.colvars.state".
colvars: Synchronizing (emptying the buffer of) trajectory file "Run1_IC_Rg_175A_Es_3kT_Ens05kT.colvars.traj".
colvars: Saving collective variables state to "rest.colvars.state".
colvars: Synchronizing (emptying the buffer of) trajectory file "Run1_IC_Rg_175A_Es_3kT_Ens05kT.colvars.traj".
colvars: Saving collective variables state to "rest.colvars.state".
colvars: Synchronizing (emptying the buffer of) trajectory file "Run1_IC_Rg_175A_Es_3kT_Ens05kT.colvars.traj".
colvars: Saving collective variables state to "rest.colvars.state".
colvars: Synchronizing (emptying the buffer of) trajectory file "Run1_IC_Rg_175A_Es_3kT_Ens05kT.colvars.traj".
colvars: Saving collective variables state to "rest.colvars.state".
colvars: Synchronizing (emptying the buffer of) trajectory file "Run1_IC_Rg_175A_Es_3kT_Ens05kT.colvars.traj".
colvars: Saving collective variables state to "rest.colvars.state".
 1000000   -1635.7794    2778.7158    4603.0058    1513.4814    2901.0138    308.90439     5120 
colvars: Synchronizing (emptying the buffer of) trajectory file "Run1_IC_Rg_175A_Es_3kT_Ens05kT.colvars.traj".
colvars: Saving collective variables state to "rest.colvars.state".
colvars: Synchronizing (emptying the buffer of) trajectory file "Run1_IC_Rg_175A_Es_3kT_Ens05kT.colvars.traj".
colvars: Saving collective variables state to "rest.colvars.state".
colvars: Synchronizing (emptying the buffer of) trajectory file "Run1_IC_Rg_175A_Es_3kT_Ens05kT.colvars.traj".
colvars: Saving collective variables state to "rest.colvars.state".
colvars: Synchronizing (emptying the buffer of) trajectory file "Run1_IC_Rg_175A_Es_3kT_Ens05kT.colvars.traj".
colvars: Saving collective variables state to "rest.colvars.state".
colvars: Synchronizing (emptying the buffer of) trajectory file "Run1_IC_Rg_175A_Es_3kT_Ens05kT.colvars.traj".
colvars: Saving collective variables state to "rest.colvars.state".
colvars: Synchronizing (emptying the buffer of) trajectory file "Run1_IC_Rg_175A_Es_3kT_Ens05kT.colvars.traj".
colvars: Saving collective variables state to "rest.colvars.state".
colvars: Synchronizing (emptying the buffer of) trajectory file "Run1_IC_Rg_175A_Es_3kT_Ens05kT.colvars.traj".
colvars: Saving collective variables state to "rest.colvars.state".
colvars: Synchronizing (emptying the buffer of) trajectory file "Run1_IC_Rg_175A_Es_3kT_Ens05kT.colvars.traj".
colvars: Saving collective variables state to "rest.colvars.state".
colvars: Synchronizing (emptying the buffer of) trajectory file "Run1_IC_Rg_175A_Es_3kT_Ens05kT.colvars.traj".
colvars: Saving collective variables state to "rest.colvars.state".
colvars: Synchronizing (emptying the buffer of) trajectory file "Run1_IC_Rg_175A_Es_3kT_Ens05kT.colvars.traj".
colvars: Saving collective variables state to "rest.colvars.state".
colvars: Synchronizing (emptying the buffer of) trajectory file "Run1_IC_Rg_175A_Es_3kT_Ens05kT.colvars.traj".
colvars: Saving collective variables state to "rest.colvars.state".
colvars: Synchronizing (emptying the buffer of) trajectory file "Run1_IC_Rg_175A_Es_3kT_Ens05kT.colvars.traj".
colvars: Saving collective variables state to "rest.colvars.state".
colvars: Synchronizing (emptying the buffer of) trajectory file "Run1_IC_Rg_175A_Es_3kT_Ens05kT.colvars.traj".
colvars: Saving collective variables state to "rest.colvars.state".
colvars: Synchronizing (emptying the buffer of) trajectory file "Run1_IC_Rg_175A_Es_3kT_Ens05kT.colvars.traj".
colvars: Saving collective variables state to "rest.colvars.state".
colvars: Synchronizing (emptying the buffer of) trajectory file "Run1_IC_Rg_175A_Es_3kT_Ens05kT.colvars.traj".
colvars: Saving collective variables state to "rest.colvars.state".
colvars: Synchronizing (emptying the buffer of) trajectory file "Run1_IC_Rg_175A_Es_3kT_Ens05kT.colvars.traj".
colvars: Saving collective variables state to "rest.colvars.state".
colvars: Synchronizing (emptying the buffer of) trajectory file "Run1_IC_Rg_175A_Es_3kT_Ens05kT.colvars.traj".
colvars: Saving collective variables state to "rest.colvars.state".
colvars: Synchronizing (emptying the buffer of) trajectory file "Run1_IC_Rg_175A_Es_3kT_Ens05kT.colvars.traj".
colvars: Saving collective variables state to "rest.colvars.state".
colvars: Synchronizing (emptying the buffer of) trajectory file "Run1_IC_Rg_175A_Es_3kT_Ens05kT.colvars.traj".
colvars: Saving collective variables state to "rest.colvars.state".
colvars: Synchronizing (emptying the buffer of) trajectory file "Run1_IC_Rg_175A_Es_3kT_Ens05kT.colvars.traj".
colvars: Saving collective variables state to "rest.colvars.state".
 2000000   -1839.8015    2578.8945    4621.1961    1533.4755    2885.2206    310.12513     5145 
colvars: Synchronizing (emptying the buffer of) trajectory file "Run1_IC_Rg_175A_Es_3kT_Ens05kT.colvars.traj".
colvars: Saving collective variables state to "rest.colvars.state".
colvars: Synchronizing (emptying the buffer of) trajectory file "Run1_IC_Rg_175A_Es_3kT_Ens05kT.colvars.traj".
colvars: Saving collective variables state to "rest.colvars.state".
colvars: Synchronizing (emptying the buffer of) trajectory file "Run1_IC_Rg_175A_Es_3kT_Ens05kT.colvars.traj".
colvars: Saving collective variables state to "rest.colvars.state".
colvars: Synchronizing (emptying the buffer of) trajectory file "Run1_IC_Rg_175A_Es_3kT_Ens05kT.colvars.traj".
colvars: Saving collective variables state to "rest.colvars.state".
colvars: Synchronizing (emptying the buffer of) trajectory file "Run1_IC_Rg_175A_Es_3kT_Ens05kT.colvars.traj".
colvars: Saving collective variables state to "rest.colvars.state".
colvars: Synchronizing (emptying the buffer of) trajectory file "Run1_IC_Rg_175A_Es_3kT_Ens05kT.colvars.traj".
colvars: Saving collective variables state to "rest.colvars.state".
colvars: Synchronizing (emptying the buffer of) trajectory file "Run1_IC_Rg_175A_Es_3kT_Ens05kT.colvars.traj".
colvars: Saving collective variables state to "rest.colvars.state".
colvars: Synchronizing (emptying the buffer of) trajectory file "Run1_IC_Rg_175A_Es_3kT_Ens05kT.colvars.traj".
colvars: Saving collective variables state to "rest.colvars.state".
colvars: Synchronizing (emptying the buffer of) trajectory file "Run1_IC_Rg_175A_Es_3kT_Ens05kT.colvars.traj".
colvars: Saving collective variables state to "rest.colvars.state".
colvars: Synchronizing (emptying the buffer of) trajectory file "Run1_IC_Rg_175A_Es_3kT_Ens05kT.colvars.traj".
colvars: Saving collective variables state to "rest.colvars.state".
colvars: Synchronizing (emptying the buffer of) trajectory file "Run1_IC_Rg_175A_Es_3kT_Ens05kT.colvars.traj".
colvars: Saving collective variables state to "rest.colvars.state".
colvars: Synchronizing (emptying the buffer of) trajectory file "Run1_IC_Rg_175A_Es_3kT_Ens05kT.colvars.traj".
colvars: Saving collective variables state to "rest.colvars.state".
colvars: Synchronizing (emptying the buffer of) trajectory file "Run1_IC_Rg_175A_Es_3kT_Ens05kT.colvars.traj".
colvars: Saving collective variables state to "rest.colvars.state".
colvars: Synchronizing (emptying the buffer of) trajectory file "Run1_IC_Rg_175A_Es_3kT_Ens05kT.colvars.traj".
colvars: Saving collective variables state to "rest.colvars.state".
colvars: Synchronizing (emptying the buffer of) trajectory file "Run1_IC_Rg_175A_Es_3kT_Ens05kT.colvars.traj".
colvars: Saving collective variables state to "rest.colvars.state".
colvars: Synchronizing (emptying the buffer of) trajectory file "Run1_IC_Rg_175A_Es_3kT_Ens05kT.colvars.traj".
colvars: Saving collective variables state to "rest.colvars.state".
colvars: Synchronizing (emptying the buffer of) trajectory file "Run1_IC_Rg_175A_Es_3kT_Ens05kT.colvars.traj".
colvars: Saving collective variables state to "rest.colvars.state".
colvars: Synchronizing (emptying the buffer of) trajectory file "Run1_IC_Rg_175A_Es_3kT_Ens05kT.colvars.traj".
colvars: Saving collective variables state to "rest.colvars.state".
colvars: Synchronizing (emptying the buffer of) trajectory file "Run1_IC_Rg_175A_Es_3kT_Ens05kT.colvars.traj".
colvars: Saving collective variables state to "rest.colvars.state".
colvars: Synchronizing (emptying the buffer of) trajectory file "Run1_IC_Rg_175A_Es_3kT_Ens05kT.colvars.traj".
colvars: Saving collective variables state to "rest.colvars.state".
 3000000   -1982.5968    2505.8989    4591.3662    1512.8531    2975.6426    308.12327     5172 
colvars: Synchronizing (emptying the buffer of) trajectory file "Run1_IC_Rg_175A_Es_3kT_Ens05kT.colvars.traj".
colvars: Saving collective variables state to "rest.colvars.state".
colvars: Synchronizing (emptying the buffer of) trajectory file "Run1_IC_Rg_175A_Es_3kT_Ens05kT.colvars.traj".
colvars: Saving collective variables state to "rest.colvars.state".
colvars: Synchronizing (emptying the buffer of) trajectory file "Run1_IC_Rg_175A_Es_3kT_Ens05kT.colvars.traj".
colvars: Saving collective variables state to "rest.colvars.state".
colvars: Synchronizing (emptying the buffer of) trajectory file "Run1_IC_Rg_175A_Es_3kT_Ens05kT.colvars.traj".
colvars: Saving collective variables state to "rest.colvars.state".
colvars: Synchronizing (emptying the buffer of) trajectory file "Run1_IC_Rg_175A_Es_3kT_Ens05kT.colvars.traj".
colvars: Saving collective variables state to "rest.colvars.state".
colvars: Synchronizing (emptying the buffer of) trajectory file "Run1_IC_Rg_175A_Es_3kT_Ens05kT.colvars.traj".
colvars: Saving collective variables state to "rest.colvars.state".
colvars: Synchronizing (emptying the buffer of) trajectory file "Run1_IC_Rg_175A_Es_3kT_Ens05kT.colvars.traj".
colvars: Saving collective variables state to "rest.colvars.state".
colvars: Synchronizing (emptying the buffer of) trajectory file "Run1_IC_Rg_175A_Es_3kT_Ens05kT.colvars.traj".
colvars: Saving collective variables state to "rest.colvars.state".
colvars: Synchronizing (emptying the buffer of) trajectory file "Run1_IC_Rg_175A_Es_3kT_Ens05kT.colvars.traj".
colvars: Saving collective variables state to "rest.colvars.state".
colvars: Synchronizing (emptying the buffer of) trajectory file "Run1_IC_Rg_175A_Es_3kT_Ens05kT.colvars.traj".
colvars: Saving collective variables state to "rest.colvars.state".
colvars: Synchronizing (emptying the buffer of) trajectory file "Run1_IC_Rg_175A_Es_3kT_Ens05kT.colvars.traj".
colvars: Saving collective variables state to "rest.colvars.state".
colvars: Synchronizing (emptying the buffer of) trajectory file "Run1_IC_Rg_175A_Es_3kT_Ens05kT.colvars.traj".
colvars: Saving collective variables state to "rest.colvars.state".
colvars: Synchronizing (emptying the buffer of) trajectory file "Run1_IC_Rg_175A_Es_3kT_Ens05kT.colvars.traj".
colvars: Saving collective variables state to "rest.colvars.state".
colvars: Synchronizing (emptying the buffer of) trajectory file "Run1_IC_Rg_175A_Es_3kT_Ens05kT.colvars.traj".
colvars: Saving collective variables state to "rest.colvars.state".
colvars: Synchronizing (emptying the buffer of) trajectory file "Run1_IC_Rg_175A_Es_3kT_Ens05kT.colvars.traj".
colvars: Saving collective variables state to "rest.colvars.state".
colvars: Synchronizing (emptying the buffer of) trajectory file "Run1_IC_Rg_175A_Es_3kT_Ens05kT.colvars.traj".
colvars: Saving collective variables state to "rest.colvars.state".
colvars: Synchronizing (emptying the buffer of) trajectory file "Run1_IC_Rg_175A_Es_3kT_Ens05kT.colvars.traj".
colvars: Saving collective variables state to "rest.colvars.state".
colvars: Synchronizing (emptying the buffer of) trajectory file "Run1_IC_Rg_175A_Es_3kT_Ens05kT.colvars.traj".
colvars: Saving collective variables state to "rest.colvars.state".
colvars: Synchronizing (emptying the buffer of) trajectory file "Run1_IC_Rg_175A_Es_3kT_Ens05kT.colvars.traj".
colvars: Saving collective variables state to "rest.colvars.state".
colvars: Synchronizing (emptying the buffer of) trajectory file "Run1_IC_Rg_175A_Es_3kT_Ens05kT.colvars.traj".
colvars: Saving collective variables state to "rest.colvars.state".
 4000000   -2204.8798    2341.0476    4675.4296    1504.8311    3041.0963     313.7647     5183 
colvars: Synchronizing (emptying the buffer of) trajectory file "Run1_IC_Rg_175A_Es_3kT_Ens05kT.colvars.traj".
colvars: Saving collective variables state to "rest.colvars.state".
colvars: Synchronizing (emptying the buffer of) trajectory file "Run1_IC_Rg_175A_Es_3kT_Ens05kT.colvars.traj".
colvars: Saving collective variables state to "rest.colvars.state".
colvars: Synchronizing (emptying the buffer of) trajectory file "Run1_IC_Rg_175A_Es_3kT_Ens05kT.colvars.traj".
colvars: Saving collective variables state to "rest.colvars.state".
colvars: Synchronizing (emptying the buffer of) trajectory file "Run1_IC_Rg_175A_Es_3kT_Ens05kT.colvars.traj".
colvars: Saving collective variables state to "rest.colvars.state".
colvars: Synchronizing (emptying the buffer of) trajectory file "Run1_IC_Rg_175A_Es_3kT_Ens05kT.colvars.traj".
colvars: Saving collective variables state to "rest.colvars.state".
colvars: Synchronizing (emptying the buffer of) trajectory file "Run1_IC_Rg_175A_Es_3kT_Ens05kT.colvars.traj".
colvars: Saving collective variables state to "rest.colvars.state".
colvars: Synchronizing (emptying the buffer of) trajectory file "Run1_IC_Rg_175A_Es_3kT_Ens05kT.colvars.traj".
colvars: Saving collective variables state to "rest.colvars.state".
colvars: Synchronizing (emptying the buffer of) trajectory file "Run1_IC_Rg_175A_Es_3kT_Ens05kT.colvars.traj".
colvars: Saving collective variables state to "rest.colvars.state".
colvars: Synchronizing (emptying the buffer of) trajectory file "Run1_IC_Rg_175A_Es_3kT_Ens05kT.colvars.traj".
colvars: Saving collective variables state to "rest.colvars.state".
colvars: Synchronizing (emptying the buffer of) trajectory file "Run1_IC_Rg_175A_Es_3kT_Ens05kT.colvars.traj".
colvars: Saving collective variables state to "rest.colvars.state".
colvars: Synchronizing (emptying the buffer of) trajectory file "Run1_IC_Rg_175A_Es_3kT_Ens05kT.colvars.traj".
colvars: Saving collective variables state to "rest.colvars.state".
colvars: Synchronizing (emptying the buffer of) trajectory file "Run1_IC_Rg_175A_Es_3kT_Ens05kT.colvars.traj".
colvars: Saving collective variables state to "rest.colvars.state".
colvars: Synchronizing (emptying the buffer of) trajectory file "Run1_IC_Rg_175A_Es_3kT_Ens05kT.colvars.traj".
colvars: Saving collective variables state to "rest.colvars.state".
colvars: Synchronizing (emptying the buffer of) trajectory file "Run1_IC_Rg_175A_Es_3kT_Ens05kT.colvars.traj".
colvars: Saving collective variables state to "rest.colvars.state".
colvars: Synchronizing (emptying the buffer of) trajectory file "Run1_IC_Rg_175A_Es_3kT_Ens05kT.colvars.traj".
colvars: Saving collective variables state to "rest.colvars.state".
colvars: Synchronizing (emptying the buffer of) trajectory file "Run1_IC_Rg_175A_Es_3kT_Ens05kT.colvars.traj".
colvars: Saving collective variables state to "rest.colvars.state".
colvars: Synchronizing (emptying the buffer of) trajectory file "Run1_IC_Rg_175A_Es_3kT_Ens05kT.colvars.traj".
colvars: Saving collective variables state to "rest.colvars.state".
colvars: Synchronizing (emptying the buffer of) trajectory file "Run1_IC_Rg_175A_Es_3kT_Ens05kT.colvars.traj".
colvars: Saving collective variables state to "rest.colvars.state".
colvars: Synchronizing (emptying the buffer of) trajectory file "Run1_IC_Rg_175A_Es_3kT_Ens05kT.colvars.traj".
colvars: Saving collective variables state to "rest.colvars.state".
colvars: Synchronizing (emptying the buffer of) trajectory file "Run1_IC_Rg_175A_Es_3kT_Ens05kT.colvars.traj".
colvars: Saving collective variables state to "rest.colvars.state".
 5000000   -2449.1463    2109.5496    4667.5281    1568.3121    2990.3838    313.23444     5205 
colvars: Synchronizing (emptying the buffer of) trajectory file "Run1_IC_Rg_175A_Es_3kT_Ens05kT.colvars.traj".
colvars: Saving collective variables state to "rest.colvars.state".
colvars: Synchronizing (emptying the buffer of) trajectory file "Run1_IC_Rg_175A_Es_3kT_Ens05kT.colvars.traj".
colvars: Saving collective variables state to "rest.colvars.state".
colvars: Synchronizing (emptying the buffer of) trajectory file "Run1_IC_Rg_175A_Es_3kT_Ens05kT.colvars.traj".
colvars: Saving collective variables state to "rest.colvars.state".
colvars: Synchronizing (emptying the buffer of) trajectory file "Run1_IC_Rg_175A_Es_3kT_Ens05kT.colvars.traj".
colvars: Saving collective variables state to "rest.colvars.state".
colvars: Synchronizing (emptying the buffer of) trajectory file "Run1_IC_Rg_175A_Es_3kT_Ens05kT.colvars.traj".
colvars: Saving collective variables state to "rest.colvars.state".
colvars: Synchronizing (emptying the buffer of) trajectory file "Run1_IC_Rg_175A_Es_3kT_Ens05kT.colvars.traj".
colvars: Saving collective variables state to "rest.colvars.state".
colvars: Synchronizing (emptying the buffer of) trajectory file "Run1_IC_Rg_175A_Es_3kT_Ens05kT.colvars.traj".
colvars: Saving collective variables state to "rest.colvars.state".
colvars: Synchronizing (emptying the buffer of) trajectory file "Run1_IC_Rg_175A_Es_3kT_Ens05kT.colvars.traj".
colvars: Saving collective variables state to "rest.colvars.state".
colvars: Synchronizing (emptying the buffer of) trajectory file "Run1_IC_Rg_175A_Es_3kT_Ens05kT.colvars.traj".
colvars: Saving collective variables state to "rest.colvars.state".
colvars: Synchronizing (emptying the buffer of) trajectory file "Run1_IC_Rg_175A_Es_3kT_Ens05kT.colvars.traj".
colvars: Saving collective variables state to "rest.colvars.state".
colvars: Synchronizing (emptying the buffer of) trajectory file "Run1_IC_Rg_175A_Es_3kT_Ens05kT.colvars.traj".
colvars: Saving collective variables state to "rest.colvars.state".
colvars: Synchronizing (emptying the buffer of) trajectory file "Run1_IC_Rg_175A_Es_3kT_Ens05kT.colvars.traj".
colvars: Saving collective variables state to "rest.colvars.state".
colvars: Synchronizing (emptying the buffer of) trajectory file "Run1_IC_Rg_175A_Es_3kT_Ens05kT.colvars.traj".
colvars: Saving collective variables state to "rest.colvars.state".
colvars: Synchronizing (emptying the buffer of) trajectory file "Run1_IC_Rg_175A_Es_3kT_Ens05kT.colvars.traj".
colvars: Saving collective variables state to "rest.colvars.state".
colvars: Synchronizing (emptying the buffer of) trajectory file "Run1_IC_Rg_175A_Es_3kT_Ens05kT.colvars.traj".
colvars: Saving collective variables state to "rest.colvars.state".
colvars: Synchronizing (emptying the buffer of) trajectory file "Run1_IC_Rg_175A_Es_3kT_Ens05kT.colvars.traj".
colvars: Saving collective variables state to "rest.colvars.state".
colvars: Synchronizing (emptying the buffer of) trajectory file "Run1_IC_Rg_175A_Es_3kT_Ens05kT.colvars.traj".
colvars: Saving collective variables state to "rest.colvars.state".
colvars: Synchronizing (emptying the buffer of) trajectory file "Run1_IC_Rg_175A_Es_3kT_Ens05kT.colvars.traj".
colvars: Saving collective variables state to "rest.colvars.state".
colvars: Synchronizing (emptying the buffer of) trajectory file "Run1_IC_Rg_175A_Es_3kT_Ens05kT.colvars.traj".
colvars: Saving collective variables state to "rest.colvars.state".
colvars: Synchronizing (emptying the buffer of) trajectory file "Run1_IC_Rg_175A_Es_3kT_Ens05kT.colvars.traj".
colvars: Saving collective variables state to "rest.colvars.state".
 6000000   -2581.4162      1990.72    4660.1756    1567.5236    3004.6126    312.74102     5208 
colvars: Synchronizing (emptying the buffer of) trajectory file "Run1_IC_Rg_175A_Es_3kT_Ens05kT.colvars.traj".
colvars: Saving collective variables state to "rest.colvars.state".
colvars: Synchronizing (emptying the buffer of) trajectory file "Run1_IC_Rg_175A_Es_3kT_Ens05kT.colvars.traj".
colvars: Saving collective variables state to "rest.colvars.state".
colvars: Synchronizing (emptying the buffer of) trajectory file "Run1_IC_Rg_175A_Es_3kT_Ens05kT.colvars.traj".
colvars: Saving collective variables state to "rest.colvars.state".
colvars: Synchronizing (emptying the buffer of) trajectory file "Run1_IC_Rg_175A_Es_3kT_Ens05kT.colvars.traj".
colvars: Saving collective variables state to "rest.colvars.state".
colvars: Synchronizing (emptying the buffer of) trajectory file "Run1_IC_Rg_175A_Es_3kT_Ens05kT.colvars.traj".
colvars: Saving collective variables state to "rest.colvars.state".
colvars: Synchronizing (emptying the buffer of) trajectory file "Run1_IC_Rg_175A_Es_3kT_Ens05kT.colvars.traj".
colvars: Saving collective variables state to "rest.colvars.state".
colvars: Synchronizing (emptying the buffer of) trajectory file "Run1_IC_Rg_175A_Es_3kT_Ens05kT.colvars.traj".
colvars: Saving collective variables state to "rest.colvars.state".
colvars: Synchronizing (emptying the buffer of) trajectory file "Run1_IC_Rg_175A_Es_3kT_Ens05kT.colvars.traj".
colvars: Saving collective variables state to "rest.colvars.state".
colvars: Synchronizing (emptying the buffer of) trajectory file "Run1_IC_Rg_175A_Es_3kT_Ens05kT.colvars.traj".
colvars: Saving collective variables state to "rest.colvars.state".
colvars: Synchronizing (emptying the buffer of) trajectory file "Run1_IC_Rg_175A_Es_3kT_Ens05kT.colvars.traj".
colvars: Saving collective variables state to "rest.colvars.state".
colvars: Synchronizing (emptying the buffer of) trajectory file "Run1_IC_Rg_175A_Es_3kT_Ens05kT.colvars.traj".
colvars: Saving collective variables state to "rest.colvars.state".
colvars: Synchronizing (emptying the buffer of) trajectory file "Run1_IC_Rg_175A_Es_3kT_Ens05kT.colvars.traj".
colvars: Saving collective variables state to "rest.colvars.state".
colvars: Synchronizing (emptying the buffer of) trajectory file "Run1_IC_Rg_175A_Es_3kT_Ens05kT.colvars.traj".
colvars: Saving collective variables state to "rest.colvars.state".
colvars: Synchronizing (emptying the buffer of) trajectory file "Run1_IC_Rg_175A_Es_3kT_Ens05kT.colvars.traj".
colvars: Saving collective variables state to "rest.colvars.state".
colvars: Synchronizing (emptying the buffer of) trajectory file "Run1_IC_Rg_175A_Es_3kT_Ens05kT.colvars.traj".
colvars: Saving collective variables state to "rest.colvars.state".
colvars: Synchronizing (emptying the buffer of) trajectory file "Run1_IC_Rg_175A_Es_3kT_Ens05kT.colvars.traj".
colvars: Saving collective variables state to "rest.colvars.state".
colvars: Synchronizing (emptying the buffer of) trajectory file "Run1_IC_Rg_175A_Es_3kT_Ens05kT.colvars.traj".
colvars: Saving collective variables state to "rest.colvars.state".
colvars: Synchronizing (emptying the buffer of) trajectory file "Run1_IC_Rg_175A_Es_3kT_Ens05kT.colvars.traj".
colvars: Saving collective variables state to "rest.colvars.state".
colvars: Synchronizing (emptying the buffer of) trajectory file "Run1_IC_Rg_175A_Es_3kT_Ens05kT.colvars.traj".
colvars: Saving collective variables state to "rest.colvars.state".
colvars: Synchronizing (emptying the buffer of) trajectory file "Run1_IC_Rg_175A_Es_3kT_Ens05kT.colvars.traj".
colvars: Saving collective variables state to "rest.colvars.state".
 7000000   -2729.2505     1801.761    4585.1781     1570.661    2960.3505    307.70799     5218 
colvars: Synchronizing (emptying the buffer of) trajectory file "Run1_IC_Rg_175A_Es_3kT_Ens05kT.colvars.traj".
colvars: Saving collective variables state to "rest.colvars.state".
colvars: Synchronizing (emptying the buffer of) trajectory file "Run1_IC_Rg_175A_Es_3kT_Ens05kT.colvars.traj".
colvars: Saving collective variables state to "rest.colvars.state".
colvars: Synchronizing (emptying the buffer of) trajectory file "Run1_IC_Rg_175A_Es_3kT_Ens05kT.colvars.traj".
colvars: Saving collective variables state to "rest.colvars.state".
colvars: Synchronizing (emptying the buffer of) trajectory file "Run1_IC_Rg_175A_Es_3kT_Ens05kT.colvars.traj".
colvars: Saving collective variables state to "rest.colvars.state".
colvars: Synchronizing (emptying the buffer of) trajectory file "Run1_IC_Rg_175A_Es_3kT_Ens05kT.colvars.traj".
colvars: Saving collective variables state to "rest.colvars.state".
colvars: Synchronizing (emptying the buffer of) trajectory file "Run1_IC_Rg_175A_Es_3kT_Ens05kT.colvars.traj".
colvars: Saving collective variables state to "rest.colvars.state".
colvars: Synchronizing (emptying the buffer of) trajectory file "Run1_IC_Rg_175A_Es_3kT_Ens05kT.colvars.traj".
colvars: Saving collective variables state to "rest.colvars.state".
colvars: Synchronizing (emptying the buffer of) trajectory file "Run1_IC_Rg_175A_Es_3kT_Ens05kT.colvars.traj".
colvars: Saving collective variables state to "rest.colvars.state".
colvars: Synchronizing (emptying the buffer of) trajectory file "Run1_IC_Rg_175A_Es_3kT_Ens05kT.colvars.traj".
colvars: Saving collective variables state to "rest.colvars.state".
colvars: Synchronizing (emptying the buffer of) trajectory file "Run1_IC_Rg_175A_Es_3kT_Ens05kT.colvars.traj".
colvars: Saving collective variables state to "rest.colvars.state".
colvars: Synchronizing (emptying the buffer of) trajectory file "Run1_IC_Rg_175A_Es_3kT_Ens05kT.colvars.traj".
colvars: Saving collective variables state to "rest.colvars.state".
colvars: Synchronizing (emptying the buffer of) trajectory file "Run1_IC_Rg_175A_Es_3kT_Ens05kT.colvars.traj".
colvars: Saving collective variables state to "rest.colvars.state".
colvars: Synchronizing (emptying the buffer of) trajectory file "Run1_IC_Rg_175A_Es_3kT_Ens05kT.colvars.traj".
colvars: Saving collective variables state to "rest.colvars.state".
colvars: Synchronizing (emptying the buffer of) trajectory file "Run1_IC_Rg_175A_Es_3kT_Ens05kT.colvars.traj".
colvars: Saving collective variables state to "rest.colvars.state".
colvars: Synchronizing (emptying the buffer of) trajectory file "Run1_IC_Rg_175A_Es_3kT_Ens05kT.colvars.traj".
colvars: Saving collective variables state to "rest.colvars.state".
colvars: Synchronizing (emptying the buffer of) trajectory file "Run1_IC_Rg_175A_Es_3kT_Ens05kT.colvars.traj".
colvars: Saving collective variables state to "rest.colvars.state".
colvars: Synchronizing (emptying the buffer of) trajectory file "Run1_IC_Rg_175A_Es_3kT_Ens05kT.colvars.traj".
colvars: Saving collective variables state to "rest.colvars.state".
colvars: Synchronizing (emptying the buffer of) trajectory file "Run1_IC_Rg_175A_Es_3kT_Ens05kT.colvars.traj".
colvars: Saving collective variables state to "rest.colvars.state".
colvars: Synchronizing (emptying the buffer of) trajectory file "Run1_IC_Rg_175A_Es_3kT_Ens05kT.colvars.traj".
colvars: Saving collective variables state to "rest.colvars.state".
colvars: Synchronizing (emptying the buffer of) trajectory file "Run1_IC_Rg_175A_Es_3kT_Ens05kT.colvars.traj".
colvars: Saving collective variables state to "rest.colvars.state".
 8000000   -2866.6957    1741.2826    4618.6633    1570.6717    3037.3066    309.95516     5219 
colvars: Synchronizing (emptying the buffer of) trajectory file "Run1_IC_Rg_175A_Es_3kT_Ens05kT.colvars.traj".
colvars: Saving collective variables state to "rest.colvars.state".
colvars: Synchronizing (emptying the buffer of) trajectory file "Run1_IC_Rg_175A_Es_3kT_Ens05kT.colvars.traj".
colvars: Saving collective variables state to "rest.colvars.state".
colvars: Synchronizing (emptying the buffer of) trajectory file "Run1_IC_Rg_175A_Es_3kT_Ens05kT.colvars.traj".
colvars: Saving collective variables state to "rest.colvars.state".
colvars: Synchronizing (emptying the buffer of) trajectory file "Run1_IC_Rg_175A_Es_3kT_Ens05kT.colvars.traj".
colvars: Saving collective variables state to "rest.colvars.state".
colvars: Synchronizing (emptying the buffer of) trajectory file "Run1_IC_Rg_175A_Es_3kT_Ens05kT.colvars.traj".
colvars: Saving collective variables state to "rest.colvars.state".
colvars: Synchronizing (emptying the buffer of) trajectory file "Run1_IC_Rg_175A_Es_3kT_Ens05kT.colvars.traj".
colvars: Saving collective variables state to "rest.colvars.state".
colvars: Synchronizing (emptying the buffer of) trajectory file "Run1_IC_Rg_175A_Es_3kT_Ens05kT.colvars.traj".
colvars: Saving collective variables state to "rest.colvars.state".
colvars: Synchronizing (emptying the buffer of) trajectory file "Run1_IC_Rg_175A_Es_3kT_Ens05kT.colvars.traj".
colvars: Saving collective variables state to "rest.colvars.state".
colvars: Synchronizing (emptying the buffer of) trajectory file "Run1_IC_Rg_175A_Es_3kT_Ens05kT.colvars.traj".
colvars: Saving collective variables state to "rest.colvars.state".
colvars: Synchronizing (emptying the buffer of) trajectory file "Run1_IC_Rg_175A_Es_3kT_Ens05kT.colvars.traj".
colvars: Saving collective variables state to "rest.colvars.state".
colvars: Synchronizing (emptying the buffer of) trajectory file "Run1_IC_Rg_175A_Es_3kT_Ens05kT.colvars.traj".
colvars: Saving collective variables state to "rest.colvars.state".
colvars: Synchronizing (emptying the buffer of) trajectory file "Run1_IC_Rg_175A_Es_3kT_Ens05kT.colvars.traj".
colvars: Saving collective variables state to "rest.colvars.state".
colvars: Synchronizing (emptying the buffer of) trajectory file "Run1_IC_Rg_175A_Es_3kT_Ens05kT.colvars.traj".
colvars: Saving collective variables state to "rest.colvars.state".
colvars: Synchronizing (emptying the buffer of) trajectory file "Run1_IC_Rg_175A_Es_3kT_Ens05kT.colvars.traj".
colvars: Saving collective variables state to "rest.colvars.state".
colvars: Synchronizing (emptying the buffer of) trajectory file "Run1_IC_Rg_175A_Es_3kT_Ens05kT.colvars.traj".
colvars: Saving collective variables state to "rest.colvars.state".
colvars: Synchronizing (emptying the buffer of) trajectory file "Run1_IC_Rg_175A_Es_3kT_Ens05kT.colvars.traj".
colvars: Saving collective variables state to "rest.colvars.state".
colvars: Synchronizing (emptying the buffer of) trajectory file "Run1_IC_Rg_175A_Es_3kT_Ens05kT.colvars.traj".
colvars: Saving collective variables state to "rest.colvars.state".
colvars: Synchronizing (emptying the buffer of) trajectory file "Run1_IC_Rg_175A_Es_3kT_Ens05kT.colvars.traj".
colvars: Saving collective variables state to "rest.colvars.state".
colvars: Synchronizing (emptying the buffer of) trajectory file "Run1_IC_Rg_175A_Es_3kT_Ens05kT.colvars.traj".
colvars: Saving collective variables state to "rest.colvars.state".
colvars: Synchronizing (emptying the buffer of) trajectory file "Run1_IC_Rg_175A_Es_3kT_Ens05kT.colvars.traj".
colvars: Saving collective variables state to "rest.colvars.state".
 9000000   -2993.2097    1567.6982    4624.7155    1581.5082    2979.3997    310.36131     5221 
colvars: Synchronizing (emptying the buffer of) trajectory file "Run1_IC_Rg_175A_Es_3kT_Ens05kT.colvars.traj".
colvars: Saving collective variables state to "rest.colvars.state".
colvars: Synchronizing (emptying the buffer of) trajectory file "Run1_IC_Rg_175A_Es_3kT_Ens05kT.colvars.traj".
colvars: Saving collective variables state to "rest.colvars.state".
colvars: Synchronizing (emptying the buffer of) trajectory file "Run1_IC_Rg_175A_Es_3kT_Ens05kT.colvars.traj".
colvars: Saving collective variables state to "rest.colvars.state".
colvars: Synchronizing (emptying the buffer of) trajectory file "Run1_IC_Rg_175A_Es_3kT_Ens05kT.colvars.traj".
colvars: Saving collective variables state to "rest.colvars.state".
colvars: Synchronizing (emptying the buffer of) trajectory file "Run1_IC_Rg_175A_Es_3kT_Ens05kT.colvars.traj".
colvars: Saving collective variables state to "rest.colvars.state".
colvars: Synchronizing (emptying the buffer of) trajectory file "Run1_IC_Rg_175A_Es_3kT_Ens05kT.colvars.traj".
colvars: Saving collective variables state to "rest.colvars.state".
colvars: Synchronizing (emptying the buffer of) trajectory file "Run1_IC_Rg_175A_Es_3kT_Ens05kT.colvars.traj".
colvars: Saving collective variables state to "rest.colvars.state".
colvars: Synchronizing (emptying the buffer of) trajectory file "Run1_IC_Rg_175A_Es_3kT_Ens05kT.colvars.traj".
colvars: Saving collective variables state to "rest.colvars.state".
colvars: Synchronizing (emptying the buffer of) trajectory file "Run1_IC_Rg_175A_Es_3kT_Ens05kT.colvars.traj".
colvars: Saving collective variables state to "rest.colvars.state".
colvars: Synchronizing (emptying the buffer of) trajectory file "Run1_IC_Rg_175A_Es_3kT_Ens05kT.colvars.traj".
colvars: Saving collective variables state to "rest.colvars.state".
colvars: Synchronizing (emptying the buffer of) trajectory file "Run1_IC_Rg_175A_Es_3kT_Ens05kT.colvars.traj".
colvars: Saving collective variables state to "rest.colvars.state".
colvars: Synchronizing (emptying the buffer of) trajectory file "Run1_IC_Rg_175A_Es_3kT_Ens05kT.colvars.traj".
colvars: Saving collective variables state to "rest.colvars.state".
colvars: Synchronizing (emptying the buffer of) trajectory file "Run1_IC_Rg_175A_Es_3kT_Ens05kT.colvars.traj".
colvars: Saving collective variables state to "rest.colvars.state".
colvars: Synchronizing (emptying the buffer of) trajectory file "Run1_IC_Rg_175A_Es_3kT_Ens05kT.colvars.traj".
colvars: Saving collective variables state to "rest.colvars.state".
colvars: Synchronizing (emptying the buffer of) trajectory file "Run1_IC_Rg_175A_Es_3kT_Ens05kT.colvars.traj".
colvars: Saving collective variables state to "rest.colvars.state".
colvars: Synchronizing (emptying the buffer of) trajectory file "Run1_IC_Rg_175A_Es_3kT_Ens05kT.colvars.traj".
colvars: Saving collective variables state to "rest.colvars.state".
colvars: Synchronizing (emptying the buffer of) trajectory file "Run1_IC_Rg_175A_Es_3kT_Ens05kT.colvars.traj".
colvars: Saving collective variables state to "rest.colvars.state".
colvars: Synchronizing (emptying the buffer of) trajectory file "Run1_IC_Rg_175A_Es_3kT_Ens05kT.colvars.traj".
colvars: Saving collective variables state to "rest.colvars.state".
colvars: Synchronizing (emptying the buffer of) trajectory file "Run1_IC_Rg_175A_Es_3kT_Ens05kT.colvars.traj".
colvars: Saving collective variables state to "rest.colvars.state".
colvars: Synchronizing (emptying the buffer of) trajectory file "Run1_IC_Rg_175A_Es_3kT_Ens05kT.colvars.traj".
colvars: Saving collective variables state to "rest.colvars.state".
10000000     -3139.45    1360.1769    4693.0834    1530.7383    2968.8887    314.94944     5222 
colvars: Synchronizing (emptying the buffer of) trajectory file "Run1_IC_Rg_175A_Es_3kT_Ens05kT.colvars.traj".
colvars: Saving collective variables state to "rest.colvars.state".
colvars: Synchronizing (emptying the buffer of) trajectory file "Run1_IC_Rg_175A_Es_3kT_Ens05kT.colvars.traj".
colvars: Saving collective variables state to "rest.colvars.state".
colvars: Synchronizing (emptying the buffer of) trajectory file "Run1_IC_Rg_175A_Es_3kT_Ens05kT.colvars.traj".
colvars: Saving collective variables state to "rest.colvars.state".
colvars: Synchronizing (emptying the buffer of) trajectory file "Run1_IC_Rg_175A_Es_3kT_Ens05kT.colvars.traj".
colvars: Saving collective variables state to "rest.colvars.state".
colvars: Synchronizing (emptying the buffer of) trajectory file "Run1_IC_Rg_175A_Es_3kT_Ens05kT.colvars.traj".
colvars: Saving collective variables state to "rest.colvars.state".
colvars: Synchronizing (emptying the buffer of) trajectory file "Run1_IC_Rg_175A_Es_3kT_Ens05kT.colvars.traj".
colvars: Saving collective variables state to "rest.colvars.state".
colvars: Synchronizing (emptying the buffer of) trajectory file "Run1_IC_Rg_175A_Es_3kT_Ens05kT.colvars.traj".
colvars: Saving collective variables state to "rest.colvars.state".
colvars: Synchronizing (emptying the buffer of) trajectory file "Run1_IC_Rg_175A_Es_3kT_Ens05kT.colvars.traj".
colvars: Saving collective variables state to "rest.colvars.state".
colvars: Synchronizing (emptying the buffer of) trajectory file "Run1_IC_Rg_175A_Es_3kT_Ens05kT.colvars.traj".
colvars: Saving collective variables state to "rest.colvars.state".
colvars: Synchronizing (emptying the buffer of) trajectory file "Run1_IC_Rg_175A_Es_3kT_Ens05kT.colvars.traj".
colvars: Saving collective variables state to "rest.colvars.state".
colvars: Synchronizing (emptying the buffer of) trajectory file "Run1_IC_Rg_175A_Es_3kT_Ens05kT.colvars.traj".
colvars: Saving collective variables state to "rest.colvars.state".
colvars: Synchronizing (emptying the buffer of) trajectory file "Run1_IC_Rg_175A_Es_3kT_Ens05kT.colvars.traj".
colvars: Saving collective variables state to "rest.colvars.state".
colvars: Synchronizing (emptying the buffer of) trajectory file "Run1_IC_Rg_175A_Es_3kT_Ens05kT.colvars.traj".
colvars: Saving collective variables state to "rest.colvars.state".
colvars: Synchronizing (emptying the buffer of) trajectory file "Run1_IC_Rg_175A_Es_3kT_Ens05kT.colvars.traj".
colvars: Saving collective variables state to "rest.colvars.state".
colvars: Synchronizing (emptying the buffer of) trajectory file "Run1_IC_Rg_175A_Es_3kT_Ens05kT.colvars.traj".
colvars: Saving collective variables state to "rest.colvars.state".
colvars: Synchronizing (emptying the buffer of) trajectory file "Run1_IC_Rg_175A_Es_3kT_Ens05kT.colvars.traj".
colvars: Saving collective variables state to "rest.colvars.state".
colvars: Synchronizing (emptying the buffer of) trajectory file "Run1_IC_Rg_175A_Es_3kT_Ens05kT.colvars.traj".
colvars: Saving collective variables state to "rest.colvars.state".
colvars: Synchronizing (emptying the buffer of) trajectory file "Run1_IC_Rg_175A_Es_3kT_Ens05kT.colvars.traj".
colvars: Saving collective variables state to "rest.colvars.state".
colvars: Synchronizing (emptying the buffer of) trajectory file "Run1_IC_Rg_175A_Es_3kT_Ens05kT.colvars.traj".
colvars: Saving collective variables state to "rest.colvars.state".
colvars: Synchronizing (emptying the buffer of) trajectory file "Run1_IC_Rg_175A_Es_3kT_Ens05kT.colvars.traj".
colvars: Saving collective variables state to "rest.colvars.state".
11000000   -3307.2437    1264.2657    4629.6569    1590.3826    2981.1268    310.69293     5227 
colvars: Synchronizing (emptying the buffer of) trajectory file "Run1_IC_Rg_175A_Es_3kT_Ens05kT.colvars.traj".
colvars: Saving collective variables state to "rest.colvars.state".
colvars: Synchronizing (emptying the buffer of) trajectory file "Run1_IC_Rg_175A_Es_3kT_Ens05kT.colvars.traj".
colvars: Saving collective variables state to "rest.colvars.state".
colvars: Synchronizing (emptying the buffer of) trajectory file "Run1_IC_Rg_175A_Es_3kT_Ens05kT.colvars.traj".
colvars: Saving collective variables state to "rest.colvars.state".
colvars: Synchronizing (emptying the buffer of) trajectory file "Run1_IC_Rg_175A_Es_3kT_Ens05kT.colvars.traj".
colvars: Saving collective variables state to "rest.colvars.state".
colvars: Synchronizing (emptying the buffer of) trajectory file "Run1_IC_Rg_175A_Es_3kT_Ens05kT.colvars.traj".
colvars: Saving collective variables state to "rest.colvars.state".
colvars: Synchronizing (emptying the buffer of) trajectory file "Run1_IC_Rg_175A_Es_3kT_Ens05kT.colvars.traj".
colvars: Saving collective variables state to "rest.colvars.state".
colvars: Synchronizing (emptying the buffer of) trajectory file "Run1_IC_Rg_175A_Es_3kT_Ens05kT.colvars.traj".
colvars: Saving collective variables state to "rest.colvars.state".
colvars: Synchronizing (emptying the buffer of) trajectory file "Run1_IC_Rg_175A_Es_3kT_Ens05kT.colvars.traj".
colvars: Saving collective variables state to "rest.colvars.state".
colvars: Synchronizing (emptying the buffer of) trajectory file "Run1_IC_Rg_175A_Es_3kT_Ens05kT.colvars.traj".
colvars: Saving collective variables state to "rest.colvars.state".
colvars: Synchronizing (emptying the buffer of) trajectory file "Run1_IC_Rg_175A_Es_3kT_Ens05kT.colvars.traj".
colvars: Saving collective variables state to "rest.colvars.state".
colvars: Synchronizing (emptying the buffer of) trajectory file "Run1_IC_Rg_175A_Es_3kT_Ens05kT.colvars.traj".
colvars: Saving collective variables state to "rest.colvars.state".
colvars: Synchronizing (emptying the buffer of) trajectory file "Run1_IC_Rg_175A_Es_3kT_Ens05kT.colvars.traj".
colvars: Saving collective variables state to "rest.colvars.state".
colvars: Synchronizing (emptying the buffer of) trajectory file "Run1_IC_Rg_175A_Es_3kT_Ens05kT.colvars.traj".
colvars: Saving collective variables state to "rest.colvars.state".
colvars: Synchronizing (emptying the buffer of) trajectory file "Run1_IC_Rg_175A_Es_3kT_Ens05kT.colvars.traj".
colvars: Saving collective variables state to "rest.colvars.state".
colvars: Synchronizing (emptying the buffer of) trajectory file "Run1_IC_Rg_175A_Es_3kT_Ens05kT.colvars.traj".
colvars: Saving collective variables state to "rest.colvars.state".
colvars: Synchronizing (emptying the buffer of) trajectory file "Run1_IC_Rg_175A_Es_3kT_Ens05kT.colvars.traj".
colvars: Saving collective variables state to "rest.colvars.state".
colvars: Synchronizing (emptying the buffer of) trajectory file "Run1_IC_Rg_175A_Es_3kT_Ens05kT.colvars.traj".
colvars: Saving collective variables state to "rest.colvars.state".
colvars: Synchronizing (emptying the buffer of) trajectory file "Run1_IC_Rg_175A_Es_3kT_Ens05kT.colvars.traj".
colvars: Saving collective variables state to "rest.colvars.state".
colvars: Synchronizing (emptying the buffer of) trajectory file "Run1_IC_Rg_175A_Es_3kT_Ens05kT.colvars.traj".
colvars: Saving collective variables state to "rest.colvars.state".
colvars: Synchronizing (emptying the buffer of) trajectory file "Run1_IC_Rg_175A_Es_3kT_Ens05kT.colvars.traj".
colvars: Saving collective variables state to "rest.colvars.state".
12000000    -3369.778    1182.4286    4626.9193    1542.7678    3009.4388    310.50921     5236 
colvars: Synchronizing (emptying the buffer of) trajectory file "Run1_IC_Rg_175A_Es_3kT_Ens05kT.colvars.traj".
colvars: Saving collective variables state to "rest.colvars.state".
colvars: Synchronizing (emptying the buffer of) trajectory file "Run1_IC_Rg_175A_Es_3kT_Ens05kT.colvars.traj".
colvars: Saving collective variables state to "rest.colvars.state".
colvars: Synchronizing (emptying the buffer of) trajectory file "Run1_IC_Rg_175A_Es_3kT_Ens05kT.colvars.traj".
colvars: Saving collective variables state to "rest.colvars.state".
colvars: Synchronizing (emptying the buffer of) trajectory file "Run1_IC_Rg_175A_Es_3kT_Ens05kT.colvars.traj".
colvars: Saving collective variables state to "rest.colvars.state".
colvars: Synchronizing (emptying the buffer of) trajectory file "Run1_IC_Rg_175A_Es_3kT_Ens05kT.colvars.traj".
colvars: Saving collective variables state to "rest.colvars.state".
colvars: Synchronizing (emptying the buffer of) trajectory file "Run1_IC_Rg_175A_Es_3kT_Ens05kT.colvars.traj".
colvars: Saving collective variables state to "rest.colvars.state".
colvars: Synchronizing (emptying the buffer of) trajectory file "Run1_IC_Rg_175A_Es_3kT_Ens05kT.colvars.traj".
colvars: Saving collective variables state to "rest.colvars.state".
colvars: Synchronizing (emptying the buffer of) trajectory file "Run1_IC_Rg_175A_Es_3kT_Ens05kT.colvars.traj".
colvars: Saving collective variables state to "rest.colvars.state".
colvars: Synchronizing (emptying the buffer of) trajectory file "Run1_IC_Rg_175A_Es_3kT_Ens05kT.colvars.traj".
colvars: Saving collective variables state to "rest.colvars.state".
colvars: Synchronizing (emptying the buffer of) trajectory file "Run1_IC_Rg_175A_Es_3kT_Ens05kT.colvars.traj".
colvars: Saving collective variables state to "rest.colvars.state".
colvars: Synchronizing (emptying the buffer of) trajectory file "Run1_IC_Rg_175A_Es_3kT_Ens05kT.colvars.traj".
colvars: Saving collective variables state to "rest.colvars.state".
colvars: Synchronizing (emptying the buffer of) trajectory file "Run1_IC_Rg_175A_Es_3kT_Ens05kT.colvars.traj".
colvars: Saving collective variables state to "rest.colvars.state".
colvars: Synchronizing (emptying the buffer of) trajectory file "Run1_IC_Rg_175A_Es_3kT_Ens05kT.colvars.traj".
colvars: Saving collective variables state to "rest.colvars.state".
colvars: Synchronizing (emptying the buffer of) trajectory file "Run1_IC_Rg_175A_Es_3kT_Ens05kT.colvars.traj".
colvars: Saving collective variables state to "rest.colvars.state".
colvars: Synchronizing (emptying the buffer of) trajectory file "Run1_IC_Rg_175A_Es_3kT_Ens05kT.colvars.traj".
colvars: Saving collective variables state to "rest.colvars.state".
colvars: Synchronizing (emptying the buffer of) trajectory file "Run1_IC_Rg_175A_Es_3kT_Ens05kT.colvars.traj".
colvars: Saving collective variables state to "rest.colvars.state".
colvars: Synchronizing (emptying the buffer of) trajectory file "Run1_IC_Rg_175A_Es_3kT_Ens05kT.colvars.traj".
colvars: Saving collective variables state to "rest.colvars.state".
colvars: Synchronizing (emptying the buffer of) trajectory file "Run1_IC_Rg_175A_Es_3kT_Ens05kT.colvars.traj".
colvars: Saving collective variables state to "rest.colvars.state".
colvars: Synchronizing (emptying the buffer of) trajectory file "Run1_IC_Rg_175A_Es_3kT_Ens05kT.colvars.traj".
colvars: Saving collective variables state to "rest.colvars.state".
colvars: Synchronizing (emptying the buffer of) trajectory file "Run1_IC_Rg_175A_Es_3kT_Ens05kT.colvars.traj".
colvars: Saving collective variables state to "rest.colvars.state".
13000000   -3415.4971    1199.4464    4617.5772    1592.7018    3022.2418    309.88227     5248 
colvars: Synchronizing (emptying the buffer of) trajectory file "Run1_IC_Rg_175A_Es_3kT_Ens05kT.colvars.traj".
colvars: Saving collective variables state to "rest.colvars.state".
colvars: Synchronizing (emptying the buffer of) trajectory file "Run1_IC_Rg_175A_Es_3kT_Ens05kT.colvars.traj".
colvars: Saving collective variables state to "rest.colvars.state".
colvars: Synchronizing (emptying the buffer of) trajectory file "Run1_IC_Rg_175A_Es_3kT_Ens05kT.colvars.traj".
colvars: Saving collective variables state to "rest.colvars.state".
colvars: Synchronizing (emptying the buffer of) trajectory file "Run1_IC_Rg_175A_Es_3kT_Ens05kT.colvars.traj".
colvars: Saving collective variables state to "rest.colvars.state".
colvars: Synchronizing (emptying the buffer of) trajectory file "Run1_IC_Rg_175A_Es_3kT_Ens05kT.colvars.traj".
colvars: Saving collective variables state to "rest.colvars.state".
colvars: Synchronizing (emptying the buffer of) trajectory file "Run1_IC_Rg_175A_Es_3kT_Ens05kT.colvars.traj".
colvars: Saving collective variables state to "rest.colvars.state".
colvars: Synchronizing (emptying the buffer of) trajectory file "Run1_IC_Rg_175A_Es_3kT_Ens05kT.colvars.traj".
colvars: Saving collective variables state to "rest.colvars.state".
colvars: Synchronizing (emptying the buffer of) trajectory file "Run1_IC_Rg_175A_Es_3kT_Ens05kT.colvars.traj".
colvars: Saving collective variables state to "rest.colvars.state".
colvars: Synchronizing (emptying the buffer of) trajectory file "Run1_IC_Rg_175A_Es_3kT_Ens05kT.colvars.traj".
colvars: Saving collective variables state to "rest.colvars.state".
colvars: Synchronizing (emptying the buffer of) trajectory file "Run1_IC_Rg_175A_Es_3kT_Ens05kT.colvars.traj".
colvars: Saving collective variables state to "rest.colvars.state".
colvars: Synchronizing (emptying the buffer of) trajectory file "Run1_IC_Rg_175A_Es_3kT_Ens05kT.colvars.traj".
colvars: Saving collective variables state to "rest.colvars.state".
colvars: Synchronizing (emptying the buffer of) trajectory file "Run1_IC_Rg_175A_Es_3kT_Ens05kT.colvars.traj".
colvars: Saving collective variables state to "rest.colvars.state".
colvars: Synchronizing (emptying the buffer of) trajectory file "Run1_IC_Rg_175A_Es_3kT_Ens05kT.colvars.traj".
colvars: Saving collective variables state to "rest.colvars.state".
colvars: Synchronizing (emptying the buffer of) trajectory file "Run1_IC_Rg_175A_Es_3kT_Ens05kT.colvars.traj".
colvars: Saving collective variables state to "rest.colvars.state".
colvars: Synchronizing (emptying the buffer of) trajectory file "Run1_IC_Rg_175A_Es_3kT_Ens05kT.colvars.traj".
colvars: Saving collective variables state to "rest.colvars.state".
colvars: Synchronizing (emptying the buffer of) trajectory file "Run1_IC_Rg_175A_Es_3kT_Ens05kT.colvars.traj".
colvars: Saving collective variables state to "rest.colvars.state".
colvars: Synchronizing (emptying the buffer of) trajectory file "Run1_IC_Rg_175A_Es_3kT_Ens05kT.colvars.traj".
colvars: Saving collective variables state to "rest.colvars.state".
colvars: Synchronizing (emptying the buffer of) trajectory file "Run1_IC_Rg_175A_Es_3kT_Ens05kT.colvars.traj".
colvars: Saving collective variables state to "rest.colvars.state".
colvars: Synchronizing (emptying the buffer of) trajectory file "Run1_IC_Rg_175A_Es_3kT_Ens05kT.colvars.traj".
colvars: Saving collective variables state to "rest.colvars.state".
colvars: Synchronizing (emptying the buffer of) trajectory file "Run1_IC_Rg_175A_Es_3kT_Ens05kT.colvars.traj".
colvars: Saving collective variables state to "rest.colvars.state".
14000000   -3568.1012    1037.2587    4678.0741    1545.5472    3059.8127    313.94217     5242 
colvars: Synchronizing (emptying the buffer of) trajectory file "Run1_IC_Rg_175A_Es_3kT_Ens05kT.colvars.traj".
colvars: Saving collective variables state to "rest.colvars.state".
colvars: Synchronizing (emptying the buffer of) trajectory file "Run1_IC_Rg_175A_Es_3kT_Ens05kT.colvars.traj".
colvars: Saving collective variables state to "rest.colvars.state".
colvars: Synchronizing (emptying the buffer of) trajectory file "Run1_IC_Rg_175A_Es_3kT_Ens05kT.colvars.traj".
colvars: Saving collective variables state to "rest.colvars.state".
colvars: Synchronizing (emptying the buffer of) trajectory file "Run1_IC_Rg_175A_Es_3kT_Ens05kT.colvars.traj".
colvars: Saving collective variables state to "rest.colvars.state".
colvars: Synchronizing (emptying the buffer of) trajectory file "Run1_IC_Rg_175A_Es_3kT_Ens05kT.colvars.traj".
colvars: Saving collective variables state to "rest.colvars.state".
colvars: Synchronizing (emptying the buffer of) trajectory file "Run1_IC_Rg_175A_Es_3kT_Ens05kT.colvars.traj".
colvars: Saving collective variables state to "rest.colvars.state".
colvars: Synchronizing (emptying the buffer of) trajectory file "Run1_IC_Rg_175A_Es_3kT_Ens05kT.colvars.traj".
colvars: Saving collective variables state to "rest.colvars.state".
colvars: Synchronizing (emptying the buffer of) trajectory file "Run1_IC_Rg_175A_Es_3kT_Ens05kT.colvars.traj".
colvars: Saving collective variables state to "rest.colvars.state".
colvars: Synchronizing (emptying the buffer of) trajectory file "Run1_IC_Rg_175A_Es_3kT_Ens05kT.colvars.traj".
colvars: Saving collective variables state to "rest.colvars.state".
colvars: Synchronizing (emptying the buffer of) trajectory file "Run1_IC_Rg_175A_Es_3kT_Ens05kT.colvars.traj".
colvars: Saving collective variables state to "rest.colvars.state".
colvars: Synchronizing (emptying the buffer of) trajectory file "Run1_IC_Rg_175A_Es_3kT_Ens05kT.colvars.traj".
colvars: Saving collective variables state to "rest.colvars.state".
colvars: Synchronizing (emptying the buffer of) trajectory file "Run1_IC_Rg_175A_Es_3kT_Ens05kT.colvars.traj".
colvars: Saving collective variables state to "rest.colvars.state".
colvars: Synchronizing (emptying the buffer of) trajectory file "Run1_IC_Rg_175A_Es_3kT_Ens05kT.colvars.traj".
colvars: Saving collective variables state to "rest.colvars.state".
colvars: Synchronizing (emptying the buffer of) trajectory file "Run1_IC_Rg_175A_Es_3kT_Ens05kT.colvars.traj".
colvars: Saving collective variables state to "rest.colvars.state".
colvars: Synchronizing (emptying the buffer of) trajectory file "Run1_IC_Rg_175A_Es_3kT_Ens05kT.colvars.traj".
colvars: Saving collective variables state to "rest.colvars.state".
colvars: Synchronizing (emptying the buffer of) trajectory file "Run1_IC_Rg_175A_Es_3kT_Ens05kT.colvars.traj".
colvars: Saving collective variables state to "rest.colvars.state".
colvars: Synchronizing (emptying the buffer of) trajectory file "Run1_IC_Rg_175A_Es_3kT_Ens05kT.colvars.traj".
colvars: Saving collective variables state to "rest.colvars.state".
colvars: Synchronizing (emptying the buffer of) trajectory file "Run1_IC_Rg_175A_Es_3kT_Ens05kT.colvars.traj".
colvars: Saving collective variables state to "rest.colvars.state".
colvars: Synchronizing (emptying the buffer of) trajectory file "Run1_IC_Rg_175A_Es_3kT_Ens05kT.colvars.traj".
colvars: Saving collective variables state to "rest.colvars.state".
colvars: Synchronizing (emptying the buffer of) trajectory file "Run1_IC_Rg_175A_Es_3kT_Ens05kT.colvars.traj".
colvars: Saving collective variables state to "rest.colvars.state".
15000000   -3529.4765     999.0511      4725.21     1561.496    2967.0317    317.10543     5238 
colvars: Synchronizing (emptying the buffer of) trajectory file "Run1_IC_Rg_175A_Es_3kT_Ens05kT.colvars.traj".
colvars: Saving collective variables state to "rest.colvars.state".
colvars: Synchronizing (emptying the buffer of) trajectory file "Run1_IC_Rg_175A_Es_3kT_Ens05kT.colvars.traj".
colvars: Saving collective variables state to "rest.colvars.state".
colvars: Synchronizing (emptying the buffer of) trajectory file "Run1_IC_Rg_175A_Es_3kT_Ens05kT.colvars.traj".
colvars: Saving collective variables state to "rest.colvars.state".
colvars: Synchronizing (emptying the buffer of) trajectory file "Run1_IC_Rg_175A_Es_3kT_Ens05kT.colvars.traj".
colvars: Saving collective variables state to "rest.colvars.state".
colvars: Synchronizing (emptying the buffer of) trajectory file "Run1_IC_Rg_175A_Es_3kT_Ens05kT.colvars.traj".
colvars: Saving collective variables state to "rest.colvars.state".
colvars: Synchronizing (emptying the buffer of) trajectory file "Run1_IC_Rg_175A_Es_3kT_Ens05kT.colvars.traj".
colvars: Saving collective variables state to "rest.colvars.state".
colvars: Synchronizing (emptying the buffer of) trajectory file "Run1_IC_Rg_175A_Es_3kT_Ens05kT.colvars.traj".
colvars: Saving collective variables state to "rest.colvars.state".
colvars: Synchronizing (emptying the buffer of) trajectory file "Run1_IC_Rg_175A_Es_3kT_Ens05kT.colvars.traj".
colvars: Saving collective variables state to "rest.colvars.state".
colvars: Synchronizing (emptying the buffer of) trajectory file "Run1_IC_Rg_175A_Es_3kT_Ens05kT.colvars.traj".
colvars: Saving collective variables state to "rest.colvars.state".
colvars: Synchronizing (emptying the buffer of) trajectory file "Run1_IC_Rg_175A_Es_3kT_Ens05kT.colvars.traj".
colvars: Saving collective variables state to "rest.colvars.state".
colvars: Synchronizing (emptying the buffer of) trajectory file "Run1_IC_Rg_175A_Es_3kT_Ens05kT.colvars.traj".
colvars: Saving collective variables state to "rest.colvars.state".
colvars: Synchronizing (emptying the buffer of) trajectory file "Run1_IC_Rg_175A_Es_3kT_Ens05kT.colvars.traj".
colvars: Saving collective variables state to "rest.colvars.state".
colvars: Synchronizing (emptying the buffer of) trajectory file "Run1_IC_Rg_175A_Es_3kT_Ens05kT.colvars.traj".
colvars: Saving collective variables state to "rest.colvars.state".
colvars: Synchronizing (emptying the buffer of) trajectory file "Run1_IC_Rg_175A_Es_3kT_Ens05kT.colvars.traj".
colvars: Saving collective variables state to "rest.colvars.state".
colvars: Synchronizing (emptying the buffer of) trajectory file "Run1_IC_Rg_175A_Es_3kT_Ens05kT.colvars.traj".
colvars: Saving collective variables state to "rest.colvars.state".
colvars: Synchronizing (emptying the buffer of) trajectory file "Run1_IC_Rg_175A_Es_3kT_Ens05kT.colvars.traj".
colvars: Saving collective variables state to "rest.colvars.state".
colvars: Synchronizing (emptying the buffer of) trajectory file "Run1_IC_Rg_175A_Es_3kT_Ens05kT.colvars.traj".
colvars: Saving collective variables state to "rest.colvars.state".
colvars: Synchronizing (emptying the buffer of) trajectory file "Run1_IC_Rg_175A_Es_3kT_Ens05kT.colvars.traj".
colvars: Saving collective variables state to "rest.colvars.state".
colvars: Synchronizing (emptying the buffer of) trajectory file "Run1_IC_Rg_175A_Es_3kT_Ens05kT.colvars.traj".
colvars: Saving collective variables state to "rest.colvars.state".
colvars: Synchronizing (emptying the buffer of) trajectory file "Run1_IC_Rg_175A_Es_3kT_Ens05kT.colvars.traj".
colvars: Saving collective variables state to "rest.colvars.state".
16000000   -3541.8716     992.9916    4604.1827    1521.4475    3013.4157    308.98337     5246 
colvars: Synchronizing (emptying the buffer of) trajectory file "Run1_IC_Rg_175A_Es_3kT_Ens05kT.colvars.traj".
colvars: Saving collective variables state to "rest.colvars.state".
colvars: Synchronizing (emptying the buffer of) trajectory file "Run1_IC_Rg_175A_Es_3kT_Ens05kT.colvars.traj".
colvars: Saving collective variables state to "rest.colvars.state".
colvars: Synchronizing (emptying the buffer of) trajectory file "Run1_IC_Rg_175A_Es_3kT_Ens05kT.colvars.traj".
colvars: Saving collective variables state to "rest.colvars.state".
colvars: Synchronizing (emptying the buffer of) trajectory file "Run1_IC_Rg_175A_Es_3kT_Ens05kT.colvars.traj".
colvars: Saving collective variables state to "rest.colvars.state".
colvars: Synchronizing (emptying the buffer of) trajectory file "Run1_IC_Rg_175A_Es_3kT_Ens05kT.colvars.traj".
colvars: Saving collective variables state to "rest.colvars.state".
colvars: Synchronizing (emptying the buffer of) trajectory file "Run1_IC_Rg_175A_Es_3kT_Ens05kT.colvars.traj".
colvars: Saving collective variables state to "rest.colvars.state".
colvars: Synchronizing (emptying the buffer of) trajectory file "Run1_IC_Rg_175A_Es_3kT_Ens05kT.colvars.traj".
colvars: Saving collective variables state to "rest.colvars.state".
colvars: Synchronizing (emptying the buffer of) trajectory file "Run1_IC_Rg_175A_Es_3kT_Ens05kT.colvars.traj".
colvars: Saving collective variables state to "rest.colvars.state".
colvars: Synchronizing (emptying the buffer of) trajectory file "Run1_IC_Rg_175A_Es_3kT_Ens05kT.colvars.traj".
colvars: Saving collective variables state to "rest.colvars.state".
colvars: Synchronizing (emptying the buffer of) trajectory file "Run1_IC_Rg_175A_Es_3kT_Ens05kT.colvars.traj".
colvars: Saving collective variables state to "rest.colvars.state".
colvars: Synchronizing (emptying the buffer of) trajectory file "Run1_IC_Rg_175A_Es_3kT_Ens05kT.colvars.traj".
colvars: Saving collective variables state to "rest.colvars.state".
colvars: Synchronizing (emptying the buffer of) trajectory file "Run1_IC_Rg_175A_Es_3kT_Ens05kT.colvars.traj".
colvars: Saving collective variables state to "rest.colvars.state".
colvars: Synchronizing (emptying the buffer of) trajectory file "Run1_IC_Rg_175A_Es_3kT_Ens05kT.colvars.traj".
colvars: Saving collective variables state to "rest.colvars.state".
colvars: Synchronizing (emptying the buffer of) trajectory file "Run1_IC_Rg_175A_Es_3kT_Ens05kT.colvars.traj".
colvars: Saving collective variables state to "rest.colvars.state".
colvars: Synchronizing (emptying the buffer of) trajectory file "Run1_IC_Rg_175A_Es_3kT_Ens05kT.colvars.traj".
colvars: Saving collective variables state to "rest.colvars.state".
colvars: Synchronizing (emptying the buffer of) trajectory file "Run1_IC_Rg_175A_Es_3kT_Ens05kT.colvars.traj".
colvars: Saving collective variables state to "rest.colvars.state".
colvars: Synchronizing (emptying the buffer of) trajectory file "Run1_IC_Rg_175A_Es_3kT_Ens05kT.colvars.traj".
colvars: Saving collective variables state to "rest.colvars.state".
colvars: Synchronizing (emptying the buffer of) trajectory file "Run1_IC_Rg_175A_Es_3kT_Ens05kT.colvars.traj".
colvars: Saving collective variables state to "rest.colvars.state".
colvars: Synchronizing (emptying the buffer of) trajectory file "Run1_IC_Rg_175A_Es_3kT_Ens05kT.colvars.traj".
colvars: Saving collective variables state to "rest.colvars.state".
colvars: Synchronizing (emptying the buffer of) trajectory file "Run1_IC_Rg_175A_Es_3kT_Ens05kT.colvars.traj".
colvars: Saving collective variables state to "rest.colvars.state".
17000000    -3659.015    843.40651    4668.2466    1565.0792    2937.3423    313.28266     5244 
colvars: Synchronizing (emptying the buffer of) trajectory file "Run1_IC_Rg_175A_Es_3kT_Ens05kT.colvars.traj".
colvars: Saving collective variables state to "rest.colvars.state".
colvars: Synchronizing (emptying the buffer of) trajectory file "Run1_IC_Rg_175A_Es_3kT_Ens05kT.colvars.traj".
colvars: Saving collective variables state to "rest.colvars.state".
colvars: Synchronizing (emptying the buffer of) trajectory file "Run1_IC_Rg_175A_Es_3kT_Ens05kT.colvars.traj".
colvars: Saving collective variables state to "rest.colvars.state".
colvars: Synchronizing (emptying the buffer of) trajectory file "Run1_IC_Rg_175A_Es_3kT_Ens05kT.colvars.traj".
colvars: Saving collective variables state to "rest.colvars.state".
colvars: Synchronizing (emptying the buffer of) trajectory file "Run1_IC_Rg_175A_Es_3kT_Ens05kT.colvars.traj".
colvars: Saving collective variables state to "rest.colvars.state".
colvars: Synchronizing (emptying the buffer of) trajectory file "Run1_IC_Rg_175A_Es_3kT_Ens05kT.colvars.traj".
colvars: Saving collective variables state to "rest.colvars.state".
colvars: Synchronizing (emptying the buffer of) trajectory file "Run1_IC_Rg_175A_Es_3kT_Ens05kT.colvars.traj".
colvars: Saving collective variables state to "rest.colvars.state".
colvars: Synchronizing (emptying the buffer of) trajectory file "Run1_IC_Rg_175A_Es_3kT_Ens05kT.colvars.traj".
colvars: Saving collective variables state to "rest.colvars.state".
colvars: Synchronizing (emptying the buffer of) trajectory file "Run1_IC_Rg_175A_Es_3kT_Ens05kT.colvars.traj".
colvars: Saving collective variables state to "rest.colvars.state".
colvars: Synchronizing (emptying the buffer of) trajectory file "Run1_IC_Rg_175A_Es_3kT_Ens05kT.colvars.traj".
colvars: Saving collective variables state to "rest.colvars.state".
colvars: Synchronizing (emptying the buffer of) trajectory file "Run1_IC_Rg_175A_Es_3kT_Ens05kT.colvars.traj".
colvars: Saving collective variables state to "rest.colvars.state".
colvars: Synchronizing (emptying the buffer of) trajectory file "Run1_IC_Rg_175A_Es_3kT_Ens05kT.colvars.traj".
colvars: Saving collective variables state to "rest.colvars.state".
colvars: Synchronizing (emptying the buffer of) trajectory file "Run1_IC_Rg_175A_Es_3kT_Ens05kT.colvars.traj".
colvars: Saving collective variables state to "rest.colvars.state".
colvars: Synchronizing (emptying the buffer of) trajectory file "Run1_IC_Rg_175A_Es_3kT_Ens05kT.colvars.traj".
colvars: Saving collective variables state to "rest.colvars.state".
colvars: Synchronizing (emptying the buffer of) trajectory file "Run1_IC_Rg_175A_Es_3kT_Ens05kT.colvars.traj".
colvars: Saving collective variables state to "rest.colvars.state".
colvars: Synchronizing (emptying the buffer of) trajectory file "Run1_IC_Rg_175A_Es_3kT_Ens05kT.colvars.traj".
colvars: Saving collective variables state to "rest.colvars.state".
colvars: Synchronizing (emptying the buffer of) trajectory file "Run1_IC_Rg_175A_Es_3kT_Ens05kT.colvars.traj".
colvars: Saving collective variables state to "rest.colvars.state".
colvars: Synchronizing (emptying the buffer of) trajectory file "Run1_IC_Rg_175A_Es_3kT_Ens05kT.colvars.traj".
colvars: Saving collective variables state to "rest.colvars.state".
colvars: Synchronizing (emptying the buffer of) trajectory file "Run1_IC_Rg_175A_Es_3kT_Ens05kT.colvars.traj".
colvars: Saving collective variables state to "rest.colvars.state".
colvars: Synchronizing (emptying the buffer of) trajectory file "Run1_IC_Rg_175A_Es_3kT_Ens05kT.colvars.traj".
colvars: Saving collective variables state to "rest.colvars.state".
18000000    -3646.493    817.26025    4681.7198    1547.7168    2916.0364    314.18683     5246 
colvars: Synchronizing (emptying the buffer of) trajectory file "Run1_IC_Rg_175A_Es_3kT_Ens05kT.colvars.traj".
colvars: Saving collective variables state to "rest.colvars.state".
colvars: Synchronizing (emptying the buffer of) trajectory file "Run1_IC_Rg_175A_Es_3kT_Ens05kT.colvars.traj".
colvars: Saving collective variables state to "rest.colvars.state".
colvars: Synchronizing (emptying the buffer of) trajectory file "Run1_IC_Rg_175A_Es_3kT_Ens05kT.colvars.traj".
colvars: Saving collective variables state to "rest.colvars.state".
colvars: Synchronizing (emptying the buffer of) trajectory file "Run1_IC_Rg_175A_Es_3kT_Ens05kT.colvars.traj".
colvars: Saving collective variables state to "rest.colvars.state".
colvars: Synchronizing (emptying the buffer of) trajectory file "Run1_IC_Rg_175A_Es_3kT_Ens05kT.colvars.traj".
colvars: Saving collective variables state to "rest.colvars.state".
colvars: Synchronizing (emptying the buffer of) trajectory file "Run1_IC_Rg_175A_Es_3kT_Ens05kT.colvars.traj".
colvars: Saving collective variables state to "rest.colvars.state".
colvars: Synchronizing (emptying the buffer of) trajectory file "Run1_IC_Rg_175A_Es_3kT_Ens05kT.colvars.traj".
colvars: Saving collective variables state to "rest.colvars.state".
colvars: Synchronizing (emptying the buffer of) trajectory file "Run1_IC_Rg_175A_Es_3kT_Ens05kT.colvars.traj".
colvars: Saving collective variables state to "rest.colvars.state".
colvars: Synchronizing (emptying the buffer of) trajectory file "Run1_IC_Rg_175A_Es_3kT_Ens05kT.colvars.traj".
colvars: Saving collective variables state to "rest.colvars.state".
colvars: Synchronizing (emptying the buffer of) trajectory file "Run1_IC_Rg_175A_Es_3kT_Ens05kT.colvars.traj".
colvars: Saving collective variables state to "rest.colvars.state".
colvars: Synchronizing (emptying the buffer of) trajectory file "Run1_IC_Rg_175A_Es_3kT_Ens05kT.colvars.traj".
colvars: Saving collective variables state to "rest.colvars.state".
colvars: Synchronizing (emptying the buffer of) trajectory file "Run1_IC_Rg_175A_Es_3kT_Ens05kT.colvars.traj".
colvars: Saving collective variables state to "rest.colvars.state".
colvars: Synchronizing (emptying the buffer of) trajectory file "Run1_IC_Rg_175A_Es_3kT_Ens05kT.colvars.traj".
colvars: Saving collective variables state to "rest.colvars.state".
colvars: Synchronizing (emptying the buffer of) trajectory file "Run1_IC_Rg_175A_Es_3kT_Ens05kT.colvars.traj".
colvars: Saving collective variables state to "rest.colvars.state".
colvars: Synchronizing (emptying the buffer of) trajectory file "Run1_IC_Rg_175A_Es_3kT_Ens05kT.colvars.traj".
colvars: Saving collective variables state to "rest.colvars.state".
colvars: Synchronizing (emptying the buffer of) trajectory file "Run1_IC_Rg_175A_Es_3kT_Ens05kT.colvars.traj".
colvars: Saving collective variables state to "rest.colvars.state".
colvars: Synchronizing (emptying the buffer of) trajectory file "Run1_IC_Rg_175A_Es_3kT_Ens05kT.colvars.traj".
colvars: Saving collective variables state to "rest.colvars.state".
colvars: Synchronizing (emptying the buffer of) trajectory file "Run1_IC_Rg_175A_Es_3kT_Ens05kT.colvars.traj".
colvars: Saving collective variables state to "rest.colvars.state".
colvars: Synchronizing (emptying the buffer of) trajectory file "Run1_IC_Rg_175A_Es_3kT_Ens05kT.colvars.traj".
colvars: Saving collective variables state to "rest.colvars.state".
colvars: Synchronizing (emptying the buffer of) trajectory file "Run1_IC_Rg_175A_Es_3kT_Ens05kT.colvars.traj".
colvars: Saving collective variables state to "rest.colvars.state".
19000000   -3642.7366    813.36257    4579.5078    1537.4788    2918.6203    307.32746     5244 
[...]
colvars: Saving collective variables state to "rest.colvars.state".
195000000   -3712.5944    706.05512     4636.085    1585.6586    2832.9909    311.12431     5251 
colvars: Synchronizing (emptying the buffer of) trajectory file "Run1_IC_Rg_175A_Es_3kT_Ens05kT.colvars.traj".
colvars: Saving collective variables state to "rest.colvars.state".
colvars: Synchronizing (emptying the buffer of) trajectory file "Run1_IC_Rg_175A_Es_3kT_Ens05kT.colvars.traj".
colvars: Saving collective variables state to "rest.colvars.state".
colvars: Synchronizing (emptying the buffer of) trajectory file "Run1_IC_Rg_175A_Es_3kT_Ens05kT.colvars.traj".
colvars: Saving collective variables state to "rest.colvars.state".
colvars: Synchronizing (emptying the buffer of) trajectory file "Run1_IC_Rg_175A_Es_3kT_Ens05kT.colvars.traj".
colvars: Saving collective variables state to "rest.colvars.state".
colvars: Synchronizing (emptying the buffer of) trajectory file "Run1_IC_Rg_175A_Es_3kT_Ens05kT.colvars.traj".
colvars: Saving collective variables state to "rest.colvars.state".
colvars: Synchronizing (emptying the buffer of) trajectory file "Run1_IC_Rg_175A_Es_3kT_Ens05kT.colvars.traj".
colvars: Saving collective variables state to "rest.colvars.state".
colvars: Synchronizing (emptying the buffer of) trajectory file "Run1_IC_Rg_175A_Es_3kT_Ens05kT.colvars.traj".
colvars: Saving collective variables state to "rest.colvars.state".
colvars: Synchronizing (emptying the buffer of) trajectory file "Run1_IC_Rg_175A_Es_3kT_Ens05kT.colvars.traj".
colvars: Saving collective variables state to "rest.colvars.state".
colvars: Synchronizing (emptying the buffer of) trajectory file "Run1_IC_Rg_175A_Es_3kT_Ens05kT.colvars.traj".
colvars: Saving collective variables state to "rest.colvars.state".
colvars: Synchronizing (emptying the buffer of) trajectory file "Run1_IC_Rg_175A_Es_3kT_Ens05kT.colvars.traj".
colvars: Saving collective variables state to "rest.colvars.state".
colvars: Synchronizing (emptying the buffer of) trajectory file "Run1_IC_Rg_175A_Es_3kT_Ens05kT.colvars.traj".
colvars: Saving collective variables state to "rest.colvars.state".
colvars: Synchronizing (emptying the buffer of) trajectory file "Run1_IC_Rg_175A_Es_3kT_Ens05kT.colvars.traj".
colvars: Saving collective variables state to "rest.colvars.state".
colvars: Synchronizing (emptying the buffer of) trajectory file "Run1_IC_Rg_175A_Es_3kT_Ens05kT.colvars.traj".
colvars: Saving collective variables state to "rest.colvars.state".
colvars: Synchronizing (emptying the buffer of) trajectory file "Run1_IC_Rg_175A_Es_3kT_Ens05kT.colvars.traj".
colvars: Saving collective variables state to "rest.colvars.state".
colvars: Synchronizing (emptying the buffer of) trajectory file "Run1_IC_Rg_175A_Es_3kT_Ens05kT.colvars.traj".
colvars: Saving collective variables state to "rest.colvars.state".
colvars: Synchronizing (emptying the buffer of) trajectory file "Run1_IC_Rg_175A_Es_3kT_Ens05kT.colvars.traj".
colvars: Saving collective variables state to "rest.colvars.state".
colvars: Synchronizing (emptying the buffer of) trajectory file "Run1_IC_Rg_175A_Es_3kT_Ens05kT.colvars.traj".
colvars: Saving collective variables state to "rest.colvars.state".
colvars: Synchronizing (emptying the buffer of) trajectory file "Run1_IC_Rg_175A_Es_3kT_Ens05kT.colvars.traj".
colvars: Saving collective variables state to "rest.colvars.state".
colvars: Synchronizing (emptying the buffer of) trajectory file "Run1_IC_Rg_175A_Es_3kT_Ens05kT.colvars.traj".
colvars: Saving collective variables state to "rest.colvars.state".
colvars: Synchronizing (emptying the buffer of) trajectory file "Run1_IC_Rg_175A_Es_3kT_Ens05kT.colvars.traj".
colvars: Saving collective variables state to "rest.colvars.state".
196000000   -3730.7384     619.9199    4568.0815    1527.5021    2823.1562    306.56065     5259 
colvars: Synchronizing (emptying the buffer of) trajectory file "Run1_IC_Rg_175A_Es_3kT_Ens05kT.colvars.traj".
colvars: Saving collective variables state to "rest.colvars.state".
colvars: Synchronizing (emptying the buffer of) trajectory file "Run1_IC_Rg_175A_Es_3kT_Ens05kT.colvars.traj".
colvars: Saving collective variables state to "rest.colvars.state".
colvars: Synchronizing (emptying the buffer of) trajectory file "Run1_IC_Rg_175A_Es_3kT_Ens05kT.colvars.traj".
colvars: Saving collective variables state to "rest.colvars.state".
colvars: Synchronizing (emptying the buffer of) trajectory file "Run1_IC_Rg_175A_Es_3kT_Ens05kT.colvars.traj".
colvars: Saving collective variables state to "rest.colvars.state".
colvars: Synchronizing (emptying the buffer of) trajectory file "Run1_IC_Rg_175A_Es_3kT_Ens05kT.colvars.traj".
colvars: Saving collective variables state to "rest.colvars.state".
colvars: Synchronizing (emptying the buffer of) trajectory file "Run1_IC_Rg_175A_Es_3kT_Ens05kT.colvars.traj".
colvars: Saving collective variables state to "rest.colvars.state".
colvars: Synchronizing (emptying the buffer of) trajectory file "Run1_IC_Rg_175A_Es_3kT_Ens05kT.colvars.traj".
colvars: Saving collective variables state to "rest.colvars.state".
colvars: Synchronizing (emptying the buffer of) trajectory file "Run1_IC_Rg_175A_Es_3kT_Ens05kT.colvars.traj".
colvars: Saving collective variables state to "rest.colvars.state".
colvars: Synchronizing (emptying the buffer of) trajectory file "Run1_IC_Rg_175A_Es_3kT_Ens05kT.colvars.traj".
colvars: Saving collective variables state to "rest.colvars.state".
colvars: Synchronizing (emptying the buffer of) trajectory file "Run1_IC_Rg_175A_Es_3kT_Ens05kT.colvars.traj".
colvars: Saving collective variables state to "rest.colvars.state".
colvars: Synchronizing (emptying the buffer of) trajectory file "Run1_IC_Rg_175A_Es_3kT_Ens05kT.colvars.traj".
colvars: Saving collective variables state to "rest.colvars.state".
colvars: Synchronizing (emptying the buffer of) trajectory file "Run1_IC_Rg_175A_Es_3kT_Ens05kT.colvars.traj".
colvars: Saving collective variables state to "rest.colvars.state".
colvars: Synchronizing (emptying the buffer of) trajectory file "Run1_IC_Rg_175A_Es_3kT_Ens05kT.colvars.traj".
colvars: Saving collective variables state to "rest.colvars.state".
colvars: Synchronizing (emptying the buffer of) trajectory file "Run1_IC_Rg_175A_Es_3kT_Ens05kT.colvars.traj".
colvars: Saving collective variables state to "rest.colvars.state".
colvars: Synchronizing (emptying the buffer of) trajectory file "Run1_IC_Rg_175A_Es_3kT_Ens05kT.colvars.traj".
colvars: Saving collective variables state to "rest.colvars.state".
colvars: Synchronizing (emptying the buffer of) trajectory file "Run1_IC_Rg_175A_Es_3kT_Ens05kT.colvars.traj".
colvars: Saving collective variables state to "rest.colvars.state".
colvars: Synchronizing (emptying the buffer of) trajectory file "Run1_IC_Rg_175A_Es_3kT_Ens05kT.colvars.traj".
colvars: Saving collective variables state to "rest.colvars.state".
colvars: Synchronizing (emptying the buffer of) trajectory file "Run1_IC_Rg_175A_Es_3kT_Ens05kT.colvars.traj".
colvars: Saving collective variables state to "rest.colvars.state".
colvars: Synchronizing (emptying the buffer of) trajectory file "Run1_IC_Rg_175A_Es_3kT_Ens05kT.colvars.traj".
colvars: Saving collective variables state to "rest.colvars.state".
colvars: Synchronizing (emptying the buffer of) trajectory file "Run1_IC_Rg_175A_Es_3kT_Ens05kT.colvars.traj".
colvars: Saving collective variables state to "rest.colvars.state".
197000000   -3698.9022    692.24127    4657.5996    1518.5544    2872.5891    312.56814     5259 
colvars: Synchronizing (emptying the buffer of) trajectory file "Run1_IC_Rg_175A_Es_3kT_Ens05kT.colvars.traj".
colvars: Saving collective variables state to "rest.colvars.state".
colvars: Synchronizing (emptying the buffer of) trajectory file "Run1_IC_Rg_175A_Es_3kT_Ens05kT.colvars.traj".
colvars: Saving collective variables state to "rest.colvars.state".
colvars: Synchronizing (emptying the buffer of) trajectory file "Run1_IC_Rg_175A_Es_3kT_Ens05kT.colvars.traj".
colvars: Saving collective variables state to "rest.colvars.state".
colvars: Synchronizing (emptying the buffer of) trajectory file "Run1_IC_Rg_175A_Es_3kT_Ens05kT.colvars.traj".
colvars: Saving collective variables state to "rest.colvars.state".
colvars: Synchronizing (emptying the buffer of) trajectory file "Run1_IC_Rg_175A_Es_3kT_Ens05kT.colvars.traj".
colvars: Saving collective variables state to "rest.colvars.state".
colvars: Synchronizing (emptying the buffer of) trajectory file "Run1_IC_Rg_175A_Es_3kT_Ens05kT.colvars.traj".
colvars: Saving collective variables state to "rest.colvars.state".
colvars: Synchronizing (emptying the buffer of) trajectory file "Run1_IC_Rg_175A_Es_3kT_Ens05kT.colvars.traj".
colvars: Saving collective variables state to "rest.colvars.state".
colvars: Synchronizing (emptying the buffer of) trajectory file "Run1_IC_Rg_175A_Es_3kT_Ens05kT.colvars.traj".
colvars: Saving collective variables state to "rest.colvars.state".
colvars: Synchronizing (emptying the buffer of) trajectory file "Run1_IC_Rg_175A_Es_3kT_Ens05kT.colvars.traj".
colvars: Saving collective variables state to "rest.colvars.state".
colvars: Synchronizing (emptying the buffer of) trajectory file "Run1_IC_Rg_175A_Es_3kT_Ens05kT.colvars.traj".
colvars: Saving collective variables state to "rest.colvars.state".
colvars: Synchronizing (emptying the buffer of) trajectory file "Run1_IC_Rg_175A_Es_3kT_Ens05kT.colvars.traj".
colvars: Saving collective variables state to "rest.colvars.state".
colvars: Synchronizing (emptying the buffer of) trajectory file "Run1_IC_Rg_175A_Es_3kT_Ens05kT.colvars.traj".
colvars: Saving collective variables state to "rest.colvars.state".
colvars: Synchronizing (emptying the buffer of) trajectory file "Run1_IC_Rg_175A_Es_3kT_Ens05kT.colvars.traj".
colvars: Saving collective variables state to "rest.colvars.state".
colvars: Synchronizing (emptying the buffer of) trajectory file "Run1_IC_Rg_175A_Es_3kT_Ens05kT.colvars.traj".
colvars: Saving collective variables state to "rest.colvars.state".
colvars: Synchronizing (emptying the buffer of) trajectory file "Run1_IC_Rg_175A_Es_3kT_Ens05kT.colvars.traj".
colvars: Saving collective variables state to "rest.colvars.state".
colvars: Synchronizing (emptying the buffer of) trajectory file "Run1_IC_Rg_175A_Es_3kT_Ens05kT.colvars.traj".
colvars: Saving collective variables state to "rest.colvars.state".
colvars: Synchronizing (emptying the buffer of) trajectory file "Run1_IC_Rg_175A_Es_3kT_Ens05kT.colvars.traj".
colvars: Saving collective variables state to "rest.colvars.state".
colvars: Synchronizing (emptying the buffer of) trajectory file "Run1_IC_Rg_175A_Es_3kT_Ens05kT.colvars.traj".
colvars: Saving collective variables state to "rest.colvars.state".
colvars: Synchronizing (emptying the buffer of) trajectory file "Run1_IC_Rg_175A_Es_3kT_Ens05kT.colvars.traj".
colvars: Saving collective variables state to "rest.colvars.state".
colvars: Synchronizing (emptying the buffer of) trajectory file "Run1_IC_Rg_175A_Es_3kT_Ens05kT.colvars.traj".
colvars: Saving collective variables state to "rest.colvars.state".
198000000   -3833.1256    575.38113    4756.1428    1557.9481    2850.5587    319.18131     5256 
colvars: Synchronizing (emptying the buffer of) trajectory file "Run1_IC_Rg_175A_Es_3kT_Ens05kT.colvars.traj".
colvars: Saving collective variables state to "rest.colvars.state".
colvars: Synchronizing (emptying the buffer of) trajectory file "Run1_IC_Rg_175A_Es_3kT_Ens05kT.colvars.traj".
colvars: Saving collective variables state to "rest.colvars.state".
colvars: Synchronizing (emptying the buffer of) trajectory file "Run1_IC_Rg_175A_Es_3kT_Ens05kT.colvars.traj".
colvars: Saving collective variables state to "rest.colvars.state".
colvars: Synchronizing (emptying the buffer of) trajectory file "Run1_IC_Rg_175A_Es_3kT_Ens05kT.colvars.traj".
colvars: Saving collective variables state to "rest.colvars.state".
colvars: Synchronizing (emptying the buffer of) trajectory file "Run1_IC_Rg_175A_Es_3kT_Ens05kT.colvars.traj".
colvars: Saving collective variables state to "rest.colvars.state".
colvars: Synchronizing (emptying the buffer of) trajectory file "Run1_IC_Rg_175A_Es_3kT_Ens05kT.colvars.traj".
colvars: Saving collective variables state to "rest.colvars.state".
colvars: Synchronizing (emptying the buffer of) trajectory file "Run1_IC_Rg_175A_Es_3kT_Ens05kT.colvars.traj".
colvars: Saving collective variables state to "rest.colvars.state".
colvars: Synchronizing (emptying the buffer of) trajectory file "Run1_IC_Rg_175A_Es_3kT_Ens05kT.colvars.traj".
colvars: Saving collective variables state to "rest.colvars.state".
colvars: Synchronizing (emptying the buffer of) trajectory file "Run1_IC_Rg_175A_Es_3kT_Ens05kT.colvars.traj".
colvars: Saving collective variables state to "rest.colvars.state".
colvars: Synchronizing (emptying the buffer of) trajectory file "Run1_IC_Rg_175A_Es_3kT_Ens05kT.colvars.traj".
colvars: Saving collective variables state to "rest.colvars.state".
colvars: Synchronizing (emptying the buffer of) trajectory file "Run1_IC_Rg_175A_Es_3kT_Ens05kT.colvars.traj".
colvars: Saving collective variables state to "rest.colvars.state".
colvars: Synchronizing (emptying the buffer of) trajectory file "Run1_IC_Rg_175A_Es_3kT_Ens05kT.colvars.traj".
colvars: Saving collective variables state to "rest.colvars.state".
colvars: Synchronizing (emptying the buffer of) trajectory file "Run1_IC_Rg_175A_Es_3kT_Ens05kT.colvars.traj".
colvars: Saving collective variables state to "rest.colvars.state".
colvars: Synchronizing (emptying the buffer of) trajectory file "Run1_IC_Rg_175A_Es_3kT_Ens05kT.colvars.traj".
colvars: Saving collective variables state to "rest.colvars.state".
colvars: Synchronizing (emptying the buffer of) trajectory file "Run1_IC_Rg_175A_Es_3kT_Ens05kT.colvars.traj".
colvars: Saving collective variables state to "rest.colvars.state".
colvars: Synchronizing (emptying the buffer of) trajectory file "Run1_IC_Rg_175A_Es_3kT_Ens05kT.colvars.traj".
colvars: Saving collective variables state to "rest.colvars.state".
colvars: Synchronizing (emptying the buffer of) trajectory file "Run1_IC_Rg_175A_Es_3kT_Ens05kT.colvars.traj".
colvars: Saving collective variables state to "rest.colvars.state".
colvars: Synchronizing (emptying the buffer of) trajectory file "Run1_IC_Rg_175A_Es_3kT_Ens05kT.colvars.traj".
colvars: Saving collective variables state to "rest.colvars.state".
colvars: Synchronizing (emptying the buffer of) trajectory file "Run1_IC_Rg_175A_Es_3kT_Ens05kT.colvars.traj".
colvars: Saving collective variables state to "rest.colvars.state".
colvars: Synchronizing (emptying the buffer of) trajectory file "Run1_IC_Rg_175A_Es_3kT_Ens05kT.colvars.traj".
colvars: Saving collective variables state to "rest.colvars.state".
199000000   -3794.2016    660.47591    4527.0738    1546.0922    2908.5853    303.80865     5262 
colvars: Synchronizing (emptying the buffer of) trajectory file "Run1_IC_Rg_175A_Es_3kT_Ens05kT.colvars.traj".
colvars: Saving collective variables state to "rest.colvars.state".
colvars: Synchronizing (emptying the buffer of) trajectory file "Run1_IC_Rg_175A_Es_3kT_Ens05kT.colvars.traj".
colvars: Saving collective variables state to "rest.colvars.state".
colvars: Synchronizing (emptying the buffer of) trajectory file "Run1_IC_Rg_175A_Es_3kT_Ens05kT.colvars.traj".
colvars: Saving collective variables state to "rest.colvars.state".
colvars: Synchronizing (emptying the buffer of) trajectory file "Run1_IC_Rg_175A_Es_3kT_Ens05kT.colvars.traj".
colvars: Saving collective variables state to "rest.colvars.state".
colvars: Synchronizing (emptying the buffer of) trajectory file "Run1_IC_Rg_175A_Es_3kT_Ens05kT.colvars.traj".
colvars: Saving collective variables state to "rest.colvars.state".
colvars: Synchronizing (emptying the buffer of) trajectory file "Run1_IC_Rg_175A_Es_3kT_Ens05kT.colvars.traj".
colvars: Saving collective variables state to "rest.colvars.state".
colvars: Synchronizing (emptying the buffer of) trajectory file "Run1_IC_Rg_175A_Es_3kT_Ens05kT.colvars.traj".
colvars: Saving collective variables state to "rest.colvars.state".
colvars: Synchronizing (emptying the buffer of) trajectory file "Run1_IC_Rg_175A_Es_3kT_Ens05kT.colvars.traj".
colvars: Saving collective variables state to "rest.colvars.state".
colvars: Synchronizing (emptying the buffer of) trajectory file "Run1_IC_Rg_175A_Es_3kT_Ens05kT.colvars.traj".
colvars: Saving collective variables state to "rest.colvars.state".
colvars: Synchronizing (emptying the buffer of) trajectory file "Run1_IC_Rg_175A_Es_3kT_Ens05kT.colvars.traj".
colvars: Saving collective variables state to "rest.colvars.state".
colvars: Synchronizing (emptying the buffer of) trajectory file "Run1_IC_Rg_175A_Es_3kT_Ens05kT.colvars.traj".
colvars: Saving collective variables state to "rest.colvars.state".
colvars: Synchronizing (emptying the buffer of) trajectory file "Run1_IC_Rg_175A_Es_3kT_Ens05kT.colvars.traj".
colvars: Saving collective variables state to "rest.colvars.state".
colvars: Synchronizing (emptying the buffer of) trajectory file "Run1_IC_Rg_175A_Es_3kT_Ens05kT.colvars.traj".
colvars: Saving collective variables state to "rest.colvars.state".
colvars: Synchronizing (emptying the buffer of) trajectory file "Run1_IC_Rg_175A_Es_3kT_Ens05kT.colvars.traj".
colvars: Saving collective variables state to "rest.colvars.state".
colvars: Synchronizing (emptying the buffer of) trajectory file "Run1_IC_Rg_175A_Es_3kT_Ens05kT.colvars.traj".
colvars: Saving collective variables state to "rest.colvars.state".
colvars: Synchronizing (emptying the buffer of) trajectory file "Run1_IC_Rg_175A_Es_3kT_Ens05kT.colvars.traj".
colvars: Saving collective variables state to "rest.colvars.state".
colvars: Synchronizing (emptying the buffer of) trajectory file "Run1_IC_Rg_175A_Es_3kT_Ens05kT.colvars.traj".
colvars: Saving collective variables state to "rest.colvars.state".
colvars: Synchronizing (emptying the buffer of) trajectory file "Run1_IC_Rg_175A_Es_3kT_Ens05kT.colvars.traj".
colvars: Saving collective variables state to "rest.colvars.state".
colvars: Synchronizing (emptying the buffer of) trajectory file "Run1_IC_Rg_175A_Es_3kT_Ens05kT.colvars.traj".
colvars: Saving collective variables state to "rest.colvars.state".
colvars: Synchronizing (emptying the buffer of) trajectory file "Run1_IC_Rg_175A_Es_3kT_Ens05kT.colvars.traj".
colvars: Saving collective variables state to "rest.colvars.state".
200000000   -3675.1697    810.46047    4577.6615    1566.8834    2918.7468    307.20356     5257 
colvars: Saving collective variables state to "Run1_IC_Rg_175A_Es_3kT_Ens05kT.colvars.state".
Loop time of 72250.5 on 8 procs for 200000000 steps with 5000 atoms

Performance: 5979.194 ns/day, 0.004 hours/ns, 2768.145 timesteps/s
99.7% CPU use with 8 MPI tasks x no OpenMP threads

MPI task timing breakdown:
Section |  min time  |  avg time  |  max time  |%varavg| %total
---------------------------------------------------------------
Pair    | 22879      | 25626      | 27246      | 823.1 | 35.47
Bond    | 3966.2     | 4009.2     | 4069.3     |  67.8 |  5.55
Neigh   | 8960.3     | 9044.6     | 9152.2     |  68.8 | 12.52
Comm    | 10638      | 13101      | 16875      |1598.7 | 18.13
Output  | 1.1464     | 1.1467     | 1.147      |   0.0 |  0.00
Modify  | 17793      | 18364      | 19493      | 386.4 | 25.42
Other   |            | 2104       |            |       |  2.91

Nlocal:    625 ave 651 max 606 min
Histogram: 1 2 0 1 1 1 0 1 0 1
Nghost:    723.125 ave 766 max 650 min
Histogram: 1 0 0 2 0 0 0 2 0 3
Neighs:    12098.5 ave 13148 max 10428 min
Histogram: 1 0 0 0 2 1 1 0 2 1

Total # of neighbors = 96788
Ave neighs/atom = 19.3576
Ave special neighs/atom = 7.3444
Neighbor list builds = 10488610
Dangerous builds = 0
System init for write_restart ...
colvars: Resetting the Collective Variables module.

Please see the log.cite file for references relevant to this simulation

Total wall time: 20:04:13
