LAMMPS (5 Jun 2019)
Reading data file ...
  orthogonal box = (-250 -250 -250) to (250 250 250)
  2 by 2 by 2 MPI processor grid
  reading atoms ...
  5000 atoms
  scanning bonds ...
  11 = max bonds/atom
  scanning angles ...
  1 = max angles/atom
  reading bonds ...
  4800 bonds
  reading angles ...
  4600 angles
Finding 1-2 1-3 1-4 neighbors ...
  special bond factors lj:   0          0          0         
  special bond factors coul: 0          0          0         
  2 = max # of 1-2 neighbors
  2 = max # of 1-3 neighbors
  4 = max # of 1-4 neighbors
  16 = max # of special neighbors
  special bonds CPU = 0.024415 secs
  read_data CPU = 0.0672855 secs
Finding 1-2 1-3 1-4 neighbors ...
  special bond factors lj:   1          1          1         
  special bond factors coul: 0          0          0         
  2 = max # of 1-2 neighbors
  2 = max # of 1-3 neighbors
  4 = max # of 1-4 neighbors
  16 = max # of special neighbors
  special bonds CPU = 0.00029366 secs
WARNING: Using 'neigh_modify every 1 delay 0 check yes' setting during minimization (../min.cpp:168)
Neighbor list info ...
  update every 1 steps, delay 0 steps, check yes
  max neighbors/atom: 2000, page size: 100000
  master list distance cutoff = 26.9
  ghost atom cutoff = 26.9
  binsize = 13.45, bins = 38 38 38
  1 neighbor lists, perpetual/occasional/extra = 1 0 0
  (1) pair lj/cut, perpetual
      attributes: half, newton on
      pair build: half/bin/newton
      stencil: half/bin/3d/newton
      bin: standard
Setting up cg style minimization ...
  Unit style    : real
  Current step  : 0
Per MPI rank memory allocation (min/avg/max) = 9.435 | 9.491 | 9.812 Mbytes
Step Temp E_pair E_mol TotEng Press 
       0            0     23223661       360000     23583661    51500.021 
    2716            0   -3008.2836    1917.3655   -1090.9181  -0.21495914 
Loop time of 0.911627 on 8 procs for 2716 steps with 5000 atoms

99.6% CPU use with 8 MPI tasks x no OpenMP threads

Minimization stats:
  Stopping criterion = energy tolerance
  Energy initial, next-to-last, final = 
         23583660.6342     -1090.81202443     -1090.91805571
  Force two-norm initial, final = 234700 1.18135
  Force max component initial, final = 11733 0.255402
  Final line search alpha, max atom move = 0.247917 0.0633185
  Iterations, force evaluations = 2716 3368

MPI task timing breakdown:
Section |  min time  |  avg time  |  max time  |%varavg| %total
---------------------------------------------------------------
Pair    | 0.20736    | 0.2849     | 0.4219     |  11.6 | 31.25
Bond    | 0.066998   | 0.080272   | 0.10103    |   3.4 |  8.81
Neigh   | 0.097187   | 0.099343   | 0.10081    |   0.4 | 10.90
Comm    | 0.11675    | 0.29294    | 0.3866     |  15.3 | 32.13
Output  | 0          | 0          | 0          |   0.0 |  0.00
Modify  | 0          | 0          | 0          |   0.0 |  0.00
Other   |            | 0.1542     |            |       | 16.91

Nlocal:    625 ave 773 max 535 min
Histogram: 2 0 1 2 1 1 0 0 0 1
Nghost:    362.75 ave 447 max 318 min
Histogram: 3 2 0 0 0 0 1 1 0 1
Neighs:    5198.25 ave 7858 max 3700 min
Histogram: 1 2 1 2 0 1 0 0 0 1

Total # of neighbors = 41586
Ave neighs/atom = 8.3172
Ave special neighs/atom = 5.52
Neighbor list builds = 201
Dangerous builds = 0
Setting up Verlet run ...
  Unit style    : real
  Current step  : 2716
  Time step     : 1
Per MPI rank memory allocation (min/avg/max) = 8.318 | 8.368 | 8.687 Mbytes
Step Temp E_pair E_mol TotEng Press 
    2716            0   -3008.2836    1917.3655   -1090.9181  -0.21495914 
   12716    312.09238   -2360.9036    3879.9219    6169.5285   -2.1152351 
Loop time of 1.81196 on 8 procs for 10000 steps with 5000 atoms

Performance: 476.831 ns/day, 0.050 hours/ns, 5518.878 timesteps/s
99.7% CPU use with 8 MPI tasks x no OpenMP threads

MPI task timing breakdown:
Section |  min time  |  avg time  |  max time  |%varavg| %total
---------------------------------------------------------------
Pair    | 0.37637    | 0.52924    | 0.8007     |  17.3 | 29.21
Bond    | 0.16107    | 0.19052    | 0.23535    |   4.9 | 10.51
Neigh   | 0.0093479  | 0.0095552  | 0.0097191  |   0.1 |  0.53
Comm    | 0.28158    | 0.65166    | 0.84561    |  22.8 | 35.96
Output  | 5.6119e-05 | 6.4433e-05 | 7.0609e-05 |   0.0 |  0.00
Modify  | 0.24837    | 0.29027    | 0.36161    |   6.2 | 16.02
Other   |            | 0.1407     |            |       |  7.76

Nlocal:    625 ave 778 max 535 min
Histogram: 2 0 1 2 1 1 0 0 0 1
Nghost:    363.875 ave 451 max 315 min
Histogram: 3 1 1 0 0 0 1 1 0 1
Neighs:    5153.25 ave 7842 max 3655 min
Histogram: 1 2 1 2 0 1 0 0 0 1

Total # of neighbors = 41226
Ave neighs/atom = 8.2452
Ave special neighs/atom = 5.52
Neighbor list builds = 19
Dangerous builds = 0
1000 atoms in group rxnSites
Neighbor list info ...
  update every 1 steps, delay 1 steps, check yes
  max neighbors/atom: 2000, page size: 100000
  master list distance cutoff = 26.9
  ghost atom cutoff = 26.9
  binsize = 13.45, bins = 38 38 38
  2 neighbor lists, perpetual/occasional/extra = 1 1 0
  (1) pair lj/cut, perpetual
      attributes: half, newton on
      pair build: half/bin/newton
      stencil: half/bin/3d/newton
      bin: standard
  (2) fix bond/create/random, occasional, copy from (1)
      attributes: half, newton on
      pair build: copy
      stencil: none
      bin: none
Setting up Verlet run ...
  Unit style    : real
  Current step  : 0
  Time step     : 25
colvars: Creating proxy instance
colvars: ----------------------------------------------------------------------
colvars: Initializing the collective variables module, version "2019-04-26".
colvars: Please cite Fiorin et al, Mol Phys 2013:
colvars:  http://dx.doi.org/10.1080/00268976.2013.813594
colvars: in any publication based on this calculation.
colvars: Using LAMMPS interface, version "2019-04-09".
colvars: ----------------------------------------------------------------------
colvars: Reading new configuration from file "N200_Rg_IC_175A.colvars":
colvars: # smp = on [default]
colvars: # colvarsTrajFrequency = 50000
colvars: # colvarsRestartFrequency = 50000
colvars: # scriptedColvarForces = off [default]
colvars: # scriptingAfterBiases = off [default]
colvars: ----------------------------------------------------------------------
colvars:   Initializing a new collective variable.
colvars:   # name = "Rg1"
colvars:   Initializing a new "gyration" component.
colvars:     # name = "" [default]
colvars:     # componentCoeff = 1 [default]
colvars:     # componentExp = 1 [default]
colvars:     # period = 0 [default]
colvars:     # wrapAround = 0 [default]
colvars:     # forceNoPBC = off [default]
colvars:     # scalable = on [default]
colvars:       Initializing atom group "atoms".
colvars:       # name = "" [default]
colvars:       # centerReference = off [default]
colvars:       # rotateReference = off [default]
colvars:       # atomsOfGroup = "" [default]
colvars:       # indexGroup = "" [default]
colvars:       # psfSegID =  [default]
colvars:       # atomsFile = "" [default]
colvars:       # dummyAtom = ( 0 , 0 , 0 ) [default]
colvars:       # enableForces = on [default]
colvars:       # enableFitGradients = on [default]
colvars:       # printAtomIDs = off [default]
colvars:       Atom group "atoms" defined with 200 atoms requested.
colvars:   All components initialized.
colvars:   # timeStepFactor = 1 [default]
colvars:   # width = 1 [default]
colvars:   # lowerBoundary = 0
colvars:   # upperBoundary = 200
colvars:   # hardLowerBoundary = off [default]
colvars:   # hardUpperBoundary = on
colvars:   # expandBoundaries = off [default]
colvars:   # extendedLagrangian = off [default]
colvars:   # outputValue = on [default]
colvars:   # outputVelocity = off [default]
colvars:   # outputTotalForce = off [default]
colvars:   # outputAppliedForce = off [default]
colvars:   # subtractAppliedForce = off [default]
colvars:   # runAve = off [default]
colvars:   # corrFunc = off [default]
colvars: ----------------------------------------------------------------------
colvars: Collective variables initialized, 1 in total.
colvars: ----------------------------------------------------------------------
colvars:   Initializing a new "metadynamics" instance.
colvars:   # name = "meta-radgy"
colvars:   # colvars = { Rg1 }
colvars:   # outputEnergy = off [default]
colvars:   # timeStepFactor = 1 [default]
colvars:   # writeTISamples = off [default]
colvars:   # writeTIPMF = off [default]
colvars:   # hillWeight = 0.2
colvars:   # newHillFrequency = 500
colvars:   # hillWidth = 1
colvars:   Half-widths of the Gaussian hills (sigma's):
colvars:   Rg1: 0.5
colvars:   # multipleReplicas = off [default]
colvars:   # useGrids = on [default]
colvars:   # gridsUpdateFrequency = 500 [default]
colvars:   # rebinGrids = off [default]
colvars:   # keepHills = off [default]
colvars:   # writeFreeEnergyFile = on [default]
colvars:   # keepFreeEnergyFiles = off [default]
colvars:   # writeHillsTrajectory = on
colvars:   # wellTempered = on
colvars:   # biasTemperature = 310
colvars:   Well-tempered metadynamics is used.
colvars:   The bias temperature is 310.
colvars:   # ebMeta = off [default]
colvars: ----------------------------------------------------------------------
colvars: Collective variables biases initialized, 1 in total.
colvars: ----------------------------------------------------------------------
colvars: Collective variables module (re)initialized.
colvars: ----------------------------------------------------------------------
colvars: The restart output state file will be "rest.colvars.state".
colvars: The final output state file will be "Run3_IC_Rg_175A_Es_3kT_Ens05kT.colvars.state".
colvars: Writing to colvar trajectory file "Run3_IC_Rg_175A_Es_3kT_Ens05kT.colvars.traj".
colvars: Re-initialized atom group for variable "Rg1":0/0. 200 atoms: total mass = 200000, total charge = 0.
Per MPI rank memory allocation (min/avg/max) = 10.35 | 10.51 | 11.05 Mbytes
Step E_pair PotEng KinEng E_bond E_angle Temp Bonds 
       0   -2360.9036    1519.0183    4650.5102    1651.9535    2227.9684    312.09238     4800 
colvars: Synchronizing (emptying the buffer of) trajectory file "Run3_IC_Rg_175A_Es_3kT_Ens05kT.colvars.traj".
colvars: Saving collective variables state to "rest.colvars.state".
colvars: Synchronizing (emptying the buffer of) trajectory file "Run3_IC_Rg_175A_Es_3kT_Ens05kT.colvars.traj".
colvars: Saving collective variables state to "rest.colvars.state".
colvars: Synchronizing (emptying the buffer of) trajectory file "Run3_IC_Rg_175A_Es_3kT_Ens05kT.colvars.traj".
colvars: Saving collective variables state to "rest.colvars.state".
colvars: Synchronizing (emptying the buffer of) trajectory file "Run3_IC_Rg_175A_Es_3kT_Ens05kT.colvars.traj".
colvars: Saving collective variables state to "rest.colvars.state".
colvars: Synchronizing (emptying the buffer of) trajectory file "Run3_IC_Rg_175A_Es_3kT_Ens05kT.colvars.traj".
colvars: Saving collective variables state to "rest.colvars.state".
colvars: Synchronizing (emptying the buffer of) trajectory file "Run3_IC_Rg_175A_Es_3kT_Ens05kT.colvars.traj".
colvars: Saving collective variables state to "rest.colvars.state".
colvars: Synchronizing (emptying the buffer of) trajectory file "Run3_IC_Rg_175A_Es_3kT_Ens05kT.colvars.traj".
colvars: Saving collective variables state to "rest.colvars.state".
colvars: Synchronizing (emptying the buffer of) trajectory file "Run3_IC_Rg_175A_Es_3kT_Ens05kT.colvars.traj".
colvars: Saving collective variables state to "rest.colvars.state".
colvars: Synchronizing (emptying the buffer of) trajectory file "Run3_IC_Rg_175A_Es_3kT_Ens05kT.colvars.traj".
colvars: Saving collective variables state to "rest.colvars.state".
colvars: Synchronizing (emptying the buffer of) trajectory file "Run3_IC_Rg_175A_Es_3kT_Ens05kT.colvars.traj".
colvars: Saving collective variables state to "rest.colvars.state".
colvars: Synchronizing (emptying the buffer of) trajectory file "Run3_IC_Rg_175A_Es_3kT_Ens05kT.colvars.traj".
colvars: Saving collective variables state to "rest.colvars.state".
colvars: Synchronizing (emptying the buffer of) trajectory file "Run3_IC_Rg_175A_Es_3kT_Ens05kT.colvars.traj".
colvars: Saving collective variables state to "rest.colvars.state".
colvars: Synchronizing (emptying the buffer of) trajectory file "Run3_IC_Rg_175A_Es_3kT_Ens05kT.colvars.traj".
colvars: Saving collective variables state to "rest.colvars.state".
colvars: Synchronizing (emptying the buffer of) trajectory file "Run3_IC_Rg_175A_Es_3kT_Ens05kT.colvars.traj".
colvars: Saving collective variables state to "rest.colvars.state".
colvars: Synchronizing (emptying the buffer of) trajectory file "Run3_IC_Rg_175A_Es_3kT_Ens05kT.colvars.traj".
colvars: Saving collective variables state to "rest.colvars.state".
colvars: Synchronizing (emptying the buffer of) trajectory file "Run3_IC_Rg_175A_Es_3kT_Ens05kT.colvars.traj".
colvars: Saving collective variables state to "rest.colvars.state".
colvars: Synchronizing (emptying the buffer of) trajectory file "Run3_IC_Rg_175A_Es_3kT_Ens05kT.colvars.traj".
colvars: Saving collective variables state to "rest.colvars.state".
colvars: Synchronizing (emptying the buffer of) trajectory file "Run3_IC_Rg_175A_Es_3kT_Ens05kT.colvars.traj".
colvars: Saving collective variables state to "rest.colvars.state".
colvars: Synchronizing (emptying the buffer of) trajectory file "Run3_IC_Rg_175A_Es_3kT_Ens05kT.colvars.traj".
colvars: Saving collective variables state to "rest.colvars.state".
colvars: Synchronizing (emptying the buffer of) trajectory file "Run3_IC_Rg_175A_Es_3kT_Ens05kT.colvars.traj".
colvars: Saving collective variables state to "rest.colvars.state".
 1000000   -1596.2287     2824.707    4715.8883    1609.7898    2811.1459    316.47985     5127 
colvars: Synchronizing (emptying the buffer of) trajectory file "Run3_IC_Rg_175A_Es_3kT_Ens05kT.colvars.traj".
colvars: Saving collective variables state to "rest.colvars.state".
colvars: Synchronizing (emptying the buffer of) trajectory file "Run3_IC_Rg_175A_Es_3kT_Ens05kT.colvars.traj".
colvars: Saving collective variables state to "rest.colvars.state".
colvars: Synchronizing (emptying the buffer of) trajectory file "Run3_IC_Rg_175A_Es_3kT_Ens05kT.colvars.traj".
colvars: Saving collective variables state to "rest.colvars.state".
colvars: Synchronizing (emptying the buffer of) trajectory file "Run3_IC_Rg_175A_Es_3kT_Ens05kT.colvars.traj".
colvars: Saving collective variables state to "rest.colvars.state".
colvars: Synchronizing (emptying the buffer of) trajectory file "Run3_IC_Rg_175A_Es_3kT_Ens05kT.colvars.traj".
colvars: Saving collective variables state to "rest.colvars.state".
colvars: Synchronizing (emptying the buffer of) trajectory file "Run3_IC_Rg_175A_Es_3kT_Ens05kT.colvars.traj".
colvars: Saving collective variables state to "rest.colvars.state".
colvars: Synchronizing (emptying the buffer of) trajectory file "Run3_IC_Rg_175A_Es_3kT_Ens05kT.colvars.traj".
colvars: Saving collective variables state to "rest.colvars.state".
colvars: Synchronizing (emptying the buffer of) trajectory file "Run3_IC_Rg_175A_Es_3kT_Ens05kT.colvars.traj".
colvars: Saving collective variables state to "rest.colvars.state".
colvars: Synchronizing (emptying the buffer of) trajectory file "Run3_IC_Rg_175A_Es_3kT_Ens05kT.colvars.traj".
colvars: Saving collective variables state to "rest.colvars.state".
colvars: Synchronizing (emptying the buffer of) trajectory file "Run3_IC_Rg_175A_Es_3kT_Ens05kT.colvars.traj".
colvars: Saving collective variables state to "rest.colvars.state".
colvars: Synchronizing (emptying the buffer of) trajectory file "Run3_IC_Rg_175A_Es_3kT_Ens05kT.colvars.traj".
colvars: Saving collective variables state to "rest.colvars.state".
colvars: Synchronizing (emptying the buffer of) trajectory file "Run3_IC_Rg_175A_Es_3kT_Ens05kT.colvars.traj".
colvars: Saving collective variables state to "rest.colvars.state".
colvars: Synchronizing (emptying the buffer of) trajectory file "Run3_IC_Rg_175A_Es_3kT_Ens05kT.colvars.traj".
colvars: Saving collective variables state to "rest.colvars.state".
colvars: Synchronizing (emptying the buffer of) trajectory file "Run3_IC_Rg_175A_Es_3kT_Ens05kT.colvars.traj".
colvars: Saving collective variables state to "rest.colvars.state".
colvars: Synchronizing (emptying the buffer of) trajectory file "Run3_IC_Rg_175A_Es_3kT_Ens05kT.colvars.traj".
colvars: Saving collective variables state to "rest.colvars.state".
colvars: Synchronizing (emptying the buffer of) trajectory file "Run3_IC_Rg_175A_Es_3kT_Ens05kT.colvars.traj".
colvars: Saving collective variables state to "rest.colvars.state".
colvars: Synchronizing (emptying the buffer of) trajectory file "Run3_IC_Rg_175A_Es_3kT_Ens05kT.colvars.traj".
colvars: Saving collective variables state to "rest.colvars.state".
colvars: Synchronizing (emptying the buffer of) trajectory file "Run3_IC_Rg_175A_Es_3kT_Ens05kT.colvars.traj".
colvars: Saving collective variables state to "rest.colvars.state".
colvars: Synchronizing (emptying the buffer of) trajectory file "Run3_IC_Rg_175A_Es_3kT_Ens05kT.colvars.traj".
colvars: Saving collective variables state to "rest.colvars.state".
colvars: Synchronizing (emptying the buffer of) trajectory file "Run3_IC_Rg_175A_Es_3kT_Ens05kT.colvars.traj".
colvars: Saving collective variables state to "rest.colvars.state".
 2000000   -1864.9699    2584.0192    4682.2413    1520.6213    2928.3678    314.22183     5152 
colvars: Synchronizing (emptying the buffer of) trajectory file "Run3_IC_Rg_175A_Es_3kT_Ens05kT.colvars.traj".
colvars: Saving collective variables state to "rest.colvars.state".
colvars: Synchronizing (emptying the buffer of) trajectory file "Run3_IC_Rg_175A_Es_3kT_Ens05kT.colvars.traj".
colvars: Saving collective variables state to "rest.colvars.state".
colvars: Synchronizing (emptying the buffer of) trajectory file "Run3_IC_Rg_175A_Es_3kT_Ens05kT.colvars.traj".
colvars: Saving collective variables state to "rest.colvars.state".
colvars: Synchronizing (emptying the buffer of) trajectory file "Run3_IC_Rg_175A_Es_3kT_Ens05kT.colvars.traj".
colvars: Saving collective variables state to "rest.colvars.state".
colvars: Synchronizing (emptying the buffer of) trajectory file "Run3_IC_Rg_175A_Es_3kT_Ens05kT.colvars.traj".
colvars: Saving collective variables state to "rest.colvars.state".
colvars: Synchronizing (emptying the buffer of) trajectory file "Run3_IC_Rg_175A_Es_3kT_Ens05kT.colvars.traj".
colvars: Saving collective variables state to "rest.colvars.state".
colvars: Synchronizing (emptying the buffer of) trajectory file "Run3_IC_Rg_175A_Es_3kT_Ens05kT.colvars.traj".
colvars: Saving collective variables state to "rest.colvars.state".
colvars: Synchronizing (emptying the buffer of) trajectory file "Run3_IC_Rg_175A_Es_3kT_Ens05kT.colvars.traj".
colvars: Saving collective variables state to "rest.colvars.state".
colvars: Synchronizing (emptying the buffer of) trajectory file "Run3_IC_Rg_175A_Es_3kT_Ens05kT.colvars.traj".
colvars: Saving collective variables state to "rest.colvars.state".
colvars: Synchronizing (emptying the buffer of) trajectory file "Run3_IC_Rg_175A_Es_3kT_Ens05kT.colvars.traj".
colvars: Saving collective variables state to "rest.colvars.state".
colvars: Synchronizing (emptying the buffer of) trajectory file "Run3_IC_Rg_175A_Es_3kT_Ens05kT.colvars.traj".
colvars: Saving collective variables state to "rest.colvars.state".
colvars: Synchronizing (emptying the buffer of) trajectory file "Run3_IC_Rg_175A_Es_3kT_Ens05kT.colvars.traj".
colvars: Saving collective variables state to "rest.colvars.state".
colvars: Synchronizing (emptying the buffer of) trajectory file "Run3_IC_Rg_175A_Es_3kT_Ens05kT.colvars.traj".
colvars: Saving collective variables state to "rest.colvars.state".
colvars: Synchronizing (emptying the buffer of) trajectory file "Run3_IC_Rg_175A_Es_3kT_Ens05kT.colvars.traj".
colvars: Saving collective variables state to "rest.colvars.state".
colvars: Synchronizing (emptying the buffer of) trajectory file "Run3_IC_Rg_175A_Es_3kT_Ens05kT.colvars.traj".
colvars: Saving collective variables state to "rest.colvars.state".
colvars: Synchronizing (emptying the buffer of) trajectory file "Run3_IC_Rg_175A_Es_3kT_Ens05kT.colvars.traj".
colvars: Saving collective variables state to "rest.colvars.state".
colvars: Synchronizing (emptying the buffer of) trajectory file "Run3_IC_Rg_175A_Es_3kT_Ens05kT.colvars.traj".
colvars: Saving collective variables state to "rest.colvars.state".
colvars: Synchronizing (emptying the buffer of) trajectory file "Run3_IC_Rg_175A_Es_3kT_Ens05kT.colvars.traj".
colvars: Saving collective variables state to "rest.colvars.state".
colvars: Synchronizing (emptying the buffer of) trajectory file "Run3_IC_Rg_175A_Es_3kT_Ens05kT.colvars.traj".
colvars: Saving collective variables state to "rest.colvars.state".
colvars: Synchronizing (emptying the buffer of) trajectory file "Run3_IC_Rg_175A_Es_3kT_Ens05kT.colvars.traj".
colvars: Saving collective variables state to "rest.colvars.state".
 3000000   -2022.8093    2376.0677    4618.9533    1545.5815    2853.2956    309.97462     5181 
colvars: Synchronizing (emptying the buffer of) trajectory file "Run3_IC_Rg_175A_Es_3kT_Ens05kT.colvars.traj".
colvars: Saving collective variables state to "rest.colvars.state".
colvars: Synchronizing (emptying the buffer of) trajectory file "Run3_IC_Rg_175A_Es_3kT_Ens05kT.colvars.traj".
colvars: Saving collective variables state to "rest.colvars.state".
colvars: Synchronizing (emptying the buffer of) trajectory file "Run3_IC_Rg_175A_Es_3kT_Ens05kT.colvars.traj".
colvars: Saving collective variables state to "rest.colvars.state".
colvars: Synchronizing (emptying the buffer of) trajectory file "Run3_IC_Rg_175A_Es_3kT_Ens05kT.colvars.traj".
colvars: Saving collective variables state to "rest.colvars.state".
colvars: Synchronizing (emptying the buffer of) trajectory file "Run3_IC_Rg_175A_Es_3kT_Ens05kT.colvars.traj".
colvars: Saving collective variables state to "rest.colvars.state".
colvars: Synchronizing (emptying the buffer of) trajectory file "Run3_IC_Rg_175A_Es_3kT_Ens05kT.colvars.traj".
colvars: Saving collective variables state to "rest.colvars.state".
colvars: Synchronizing (emptying the buffer of) trajectory file "Run3_IC_Rg_175A_Es_3kT_Ens05kT.colvars.traj".
colvars: Saving collective variables state to "rest.colvars.state".
colvars: Synchronizing (emptying the buffer of) trajectory file "Run3_IC_Rg_175A_Es_3kT_Ens05kT.colvars.traj".
colvars: Saving collective variables state to "rest.colvars.state".
colvars: Synchronizing (emptying the buffer of) trajectory file "Run3_IC_Rg_175A_Es_3kT_Ens05kT.colvars.traj".
colvars: Saving collective variables state to "rest.colvars.state".
colvars: Synchronizing (emptying the buffer of) trajectory file "Run3_IC_Rg_175A_Es_3kT_Ens05kT.colvars.traj".
colvars: Saving collective variables state to "rest.colvars.state".
colvars: Synchronizing (emptying the buffer of) trajectory file "Run3_IC_Rg_175A_Es_3kT_Ens05kT.colvars.traj".
colvars: Saving collective variables state to "rest.colvars.state".
colvars: Synchronizing (emptying the buffer of) trajectory file "Run3_IC_Rg_175A_Es_3kT_Ens05kT.colvars.traj".
colvars: Saving collective variables state to "rest.colvars.state".
colvars: Synchronizing (emptying the buffer of) trajectory file "Run3_IC_Rg_175A_Es_3kT_Ens05kT.colvars.traj".
colvars: Saving collective variables state to "rest.colvars.state".
colvars: Synchronizing (emptying the buffer of) trajectory file "Run3_IC_Rg_175A_Es_3kT_Ens05kT.colvars.traj".
colvars: Saving collective variables state to "rest.colvars.state".
colvars: Synchronizing (emptying the buffer of) trajectory file "Run3_IC_Rg_175A_Es_3kT_Ens05kT.colvars.traj".
colvars: Saving collective variables state to "rest.colvars.state".
colvars: Synchronizing (emptying the buffer of) trajectory file "Run3_IC_Rg_175A_Es_3kT_Ens05kT.colvars.traj".
colvars: Saving collective variables state to "rest.colvars.state".
colvars: Synchronizing (emptying the buffer of) trajectory file "Run3_IC_Rg_175A_Es_3kT_Ens05kT.colvars.traj".
colvars: Saving collective variables state to "rest.colvars.state".
colvars: Synchronizing (emptying the buffer of) trajectory file "Run3_IC_Rg_175A_Es_3kT_Ens05kT.colvars.traj".
colvars: Saving collective variables state to "rest.colvars.state".
colvars: Synchronizing (emptying the buffer of) trajectory file "Run3_IC_Rg_175A_Es_3kT_Ens05kT.colvars.traj".
colvars: Saving collective variables state to "rest.colvars.state".
colvars: Synchronizing (emptying the buffer of) trajectory file "Run3_IC_Rg_175A_Es_3kT_Ens05kT.colvars.traj".
colvars: Saving collective variables state to "rest.colvars.state".
 4000000   -2264.3716    2168.0721    4623.4661    1541.5313    2890.9124    310.27747     5194 
colvars: Synchronizing (emptying the buffer of) trajectory file "Run3_IC_Rg_175A_Es_3kT_Ens05kT.colvars.traj".
colvars: Saving collective variables state to "rest.colvars.state".
colvars: Synchronizing (emptying the buffer of) trajectory file "Run3_IC_Rg_175A_Es_3kT_Ens05kT.colvars.traj".
colvars: Saving collective variables state to "rest.colvars.state".
colvars: Synchronizing (emptying the buffer of) trajectory file "Run3_IC_Rg_175A_Es_3kT_Ens05kT.colvars.traj".
colvars: Saving collective variables state to "rest.colvars.state".
colvars: Synchronizing (emptying the buffer of) trajectory file "Run3_IC_Rg_175A_Es_3kT_Ens05kT.colvars.traj".
colvars: Saving collective variables state to "rest.colvars.state".
colvars: Synchronizing (emptying the buffer of) trajectory file "Run3_IC_Rg_175A_Es_3kT_Ens05kT.colvars.traj".
colvars: Saving collective variables state to "rest.colvars.state".
colvars: Synchronizing (emptying the buffer of) trajectory file "Run3_IC_Rg_175A_Es_3kT_Ens05kT.colvars.traj".
colvars: Saving collective variables state to "rest.colvars.state".
colvars: Synchronizing (emptying the buffer of) trajectory file "Run3_IC_Rg_175A_Es_3kT_Ens05kT.colvars.traj".
colvars: Saving collective variables state to "rest.colvars.state".
colvars: Synchronizing (emptying the buffer of) trajectory file "Run3_IC_Rg_175A_Es_3kT_Ens05kT.colvars.traj".
colvars: Saving collective variables state to "rest.colvars.state".
colvars: Synchronizing (emptying the buffer of) trajectory file "Run3_IC_Rg_175A_Es_3kT_Ens05kT.colvars.traj".
colvars: Saving collective variables state to "rest.colvars.state".
colvars: Synchronizing (emptying the buffer of) trajectory file "Run3_IC_Rg_175A_Es_3kT_Ens05kT.colvars.traj".
colvars: Saving collective variables state to "rest.colvars.state".
colvars: Synchronizing (emptying the buffer of) trajectory file "Run3_IC_Rg_175A_Es_3kT_Ens05kT.colvars.traj".
colvars: Saving collective variables state to "rest.colvars.state".
colvars: Synchronizing (emptying the buffer of) trajectory file "Run3_IC_Rg_175A_Es_3kT_Ens05kT.colvars.traj".
colvars: Saving collective variables state to "rest.colvars.state".
colvars: Synchronizing (emptying the buffer of) trajectory file "Run3_IC_Rg_175A_Es_3kT_Ens05kT.colvars.traj".
colvars: Saving collective variables state to "rest.colvars.state".
colvars: Synchronizing (emptying the buffer of) trajectory file "Run3_IC_Rg_175A_Es_3kT_Ens05kT.colvars.traj".
colvars: Saving collective variables state to "rest.colvars.state".
colvars: Synchronizing (emptying the buffer of) trajectory file "Run3_IC_Rg_175A_Es_3kT_Ens05kT.colvars.traj".
colvars: Saving collective variables state to "rest.colvars.state".
colvars: Synchronizing (emptying the buffer of) trajectory file "Run3_IC_Rg_175A_Es_3kT_Ens05kT.colvars.traj".
colvars: Saving collective variables state to "rest.colvars.state".
colvars: Synchronizing (emptying the buffer of) trajectory file "Run3_IC_Rg_175A_Es_3kT_Ens05kT.colvars.traj".
colvars: Saving collective variables state to "rest.colvars.state".
colvars: Synchronizing (emptying the buffer of) trajectory file "Run3_IC_Rg_175A_Es_3kT_Ens05kT.colvars.traj".
colvars: Saving collective variables state to "rest.colvars.state".
colvars: Synchronizing (emptying the buffer of) trajectory file "Run3_IC_Rg_175A_Es_3kT_Ens05kT.colvars.traj".
colvars: Saving collective variables state to "rest.colvars.state".
colvars: Synchronizing (emptying the buffer of) trajectory file "Run3_IC_Rg_175A_Es_3kT_Ens05kT.colvars.traj".
colvars: Saving collective variables state to "rest.colvars.state".
 5000000   -2422.1455    2122.3401    4624.8623    1546.9941    2997.4915    310.37117     5205 
colvars: Synchronizing (emptying the buffer of) trajectory file "Run3_IC_Rg_175A_Es_3kT_Ens05kT.colvars.traj".
colvars: Saving collective variables state to "rest.colvars.state".
colvars: Synchronizing (emptying the buffer of) trajectory file "Run3_IC_Rg_175A_Es_3kT_Ens05kT.colvars.traj".
colvars: Saving collective variables state to "rest.colvars.state".
colvars: Synchronizing (emptying the buffer of) trajectory file "Run3_IC_Rg_175A_Es_3kT_Ens05kT.colvars.traj".
colvars: Saving collective variables state to "rest.colvars.state".
colvars: Synchronizing (emptying the buffer of) trajectory file "Run3_IC_Rg_175A_Es_3kT_Ens05kT.colvars.traj".
colvars: Saving collective variables state to "rest.colvars.state".
colvars: Synchronizing (emptying the buffer of) trajectory file "Run3_IC_Rg_175A_Es_3kT_Ens05kT.colvars.traj".
colvars: Saving collective variables state to "rest.colvars.state".
colvars: Synchronizing (emptying the buffer of) trajectory file "Run3_IC_Rg_175A_Es_3kT_Ens05kT.colvars.traj".
colvars: Saving collective variables state to "rest.colvars.state".
colvars: Synchronizing (emptying the buffer of) trajectory file "Run3_IC_Rg_175A_Es_3kT_Ens05kT.colvars.traj".
colvars: Saving collective variables state to "rest.colvars.state".
colvars: Synchronizing (emptying the buffer of) trajectory file "Run3_IC_Rg_175A_Es_3kT_Ens05kT.colvars.traj".
colvars: Saving collective variables state to "rest.colvars.state".
colvars: Synchronizing (emptying the buffer of) trajectory file "Run3_IC_Rg_175A_Es_3kT_Ens05kT.colvars.traj".
colvars: Saving collective variables state to "rest.colvars.state".
colvars: Synchronizing (emptying the buffer of) trajectory file "Run3_IC_Rg_175A_Es_3kT_Ens05kT.colvars.traj".
colvars: Saving collective variables state to "rest.colvars.state".
colvars: Synchronizing (emptying the buffer of) trajectory file "Run3_IC_Rg_175A_Es_3kT_Ens05kT.colvars.traj".
colvars: Saving collective variables state to "rest.colvars.state".
colvars: Synchronizing (emptying the buffer of) trajectory file "Run3_IC_Rg_175A_Es_3kT_Ens05kT.colvars.traj".
colvars: Saving collective variables state to "rest.colvars.state".
colvars: Synchronizing (emptying the buffer of) trajectory file "Run3_IC_Rg_175A_Es_3kT_Ens05kT.colvars.traj".
colvars: Saving collective variables state to "rest.colvars.state".
colvars: Synchronizing (emptying the buffer of) trajectory file "Run3_IC_Rg_175A_Es_3kT_Ens05kT.colvars.traj".
colvars: Saving collective variables state to "rest.colvars.state".
colvars: Synchronizing (emptying the buffer of) trajectory file "Run3_IC_Rg_175A_Es_3kT_Ens05kT.colvars.traj".
colvars: Saving collective variables state to "rest.colvars.state".
colvars: Synchronizing (emptying the buffer of) trajectory file "Run3_IC_Rg_175A_Es_3kT_Ens05kT.colvars.traj".
colvars: Saving collective variables state to "rest.colvars.state".
colvars: Synchronizing (emptying the buffer of) trajectory file "Run3_IC_Rg_175A_Es_3kT_Ens05kT.colvars.traj".
colvars: Saving collective variables state to "rest.colvars.state".
colvars: Synchronizing (emptying the buffer of) trajectory file "Run3_IC_Rg_175A_Es_3kT_Ens05kT.colvars.traj".
colvars: Saving collective variables state to "rest.colvars.state".
colvars: Synchronizing (emptying the buffer of) trajectory file "Run3_IC_Rg_175A_Es_3kT_Ens05kT.colvars.traj".
colvars: Saving collective variables state to "rest.colvars.state".
colvars: Synchronizing (emptying the buffer of) trajectory file "Run3_IC_Rg_175A_Es_3kT_Ens05kT.colvars.traj".
colvars: Saving collective variables state to "rest.colvars.state".
 6000000   -2678.0341    1816.8635    4583.2728    1527.7677    2967.1299    307.58013     5216 
colvars: Synchronizing (emptying the buffer of) trajectory file "Run3_IC_Rg_175A_Es_3kT_Ens05kT.colvars.traj".
colvars: Saving collective variables state to "rest.colvars.state".
colvars: Synchronizing (emptying the buffer of) trajectory file "Run3_IC_Rg_175A_Es_3kT_Ens05kT.colvars.traj".
colvars: Saving collective variables state to "rest.colvars.state".
colvars: Synchronizing (emptying the buffer of) trajectory file "Run3_IC_Rg_175A_Es_3kT_Ens05kT.colvars.traj".
colvars: Saving collective variables state to "rest.colvars.state".
colvars: Synchronizing (emptying the buffer of) trajectory file "Run3_IC_Rg_175A_Es_3kT_Ens05kT.colvars.traj".
colvars: Saving collective variables state to "rest.colvars.state".
colvars: Synchronizing (emptying the buffer of) trajectory file "Run3_IC_Rg_175A_Es_3kT_Ens05kT.colvars.traj".
colvars: Saving collective variables state to "rest.colvars.state".
colvars: Synchronizing (emptying the buffer of) trajectory file "Run3_IC_Rg_175A_Es_3kT_Ens05kT.colvars.traj".
colvars: Saving collective variables state to "rest.colvars.state".
colvars: Synchronizing (emptying the buffer of) trajectory file "Run3_IC_Rg_175A_Es_3kT_Ens05kT.colvars.traj".
colvars: Saving collective variables state to "rest.colvars.state".
colvars: Synchronizing (emptying the buffer of) trajectory file "Run3_IC_Rg_175A_Es_3kT_Ens05kT.colvars.traj".
colvars: Saving collective variables state to "rest.colvars.state".
colvars: Synchronizing (emptying the buffer of) trajectory file "Run3_IC_Rg_175A_Es_3kT_Ens05kT.colvars.traj".
colvars: Saving collective variables state to "rest.colvars.state".
colvars: Synchronizing (emptying the buffer of) trajectory file "Run3_IC_Rg_175A_Es_3kT_Ens05kT.colvars.traj".
colvars: Saving collective variables state to "rest.colvars.state".
colvars: Synchronizing (emptying the buffer of) trajectory file "Run3_IC_Rg_175A_Es_3kT_Ens05kT.colvars.traj".
colvars: Saving collective variables state to "rest.colvars.state".
colvars: Synchronizing (emptying the buffer of) trajectory file "Run3_IC_Rg_175A_Es_3kT_Ens05kT.colvars.traj".
colvars: Saving collective variables state to "rest.colvars.state".
colvars: Synchronizing (emptying the buffer of) trajectory file "Run3_IC_Rg_175A_Es_3kT_Ens05kT.colvars.traj".
colvars: Saving collective variables state to "rest.colvars.state".
colvars: Synchronizing (emptying the buffer of) trajectory file "Run3_IC_Rg_175A_Es_3kT_Ens05kT.colvars.traj".
colvars: Saving collective variables state to "rest.colvars.state".
colvars: Synchronizing (emptying the buffer of) trajectory file "Run3_IC_Rg_175A_Es_3kT_Ens05kT.colvars.traj".
colvars: Saving collective variables state to "rest.colvars.state".
colvars: Synchronizing (emptying the buffer of) trajectory file "Run3_IC_Rg_175A_Es_3kT_Ens05kT.colvars.traj".
colvars: Saving collective variables state to "rest.colvars.state".
colvars: Synchronizing (emptying the buffer of) trajectory file "Run3_IC_Rg_175A_Es_3kT_Ens05kT.colvars.traj".
colvars: Saving collective variables state to "rest.colvars.state".
colvars: Synchronizing (emptying the buffer of) trajectory file "Run3_IC_Rg_175A_Es_3kT_Ens05kT.colvars.traj".
colvars: Saving collective variables state to "rest.colvars.state".
colvars: Synchronizing (emptying the buffer of) trajectory file "Run3_IC_Rg_175A_Es_3kT_Ens05kT.colvars.traj".
colvars: Saving collective variables state to "rest.colvars.state".
colvars: Synchronizing (emptying the buffer of) trajectory file "Run3_IC_Rg_175A_Es_3kT_Ens05kT.colvars.traj".
colvars: Saving collective variables state to "rest.colvars.state".
 7000000   -2756.4114    1784.7287    4634.1485     1515.631    3025.5091    310.99435     5214 
colvars: Synchronizing (emptying the buffer of) trajectory file "Run3_IC_Rg_175A_Es_3kT_Ens05kT.colvars.traj".
colvars: Saving collective variables state to "rest.colvars.state".
colvars: Synchronizing (emptying the buffer of) trajectory file "Run3_IC_Rg_175A_Es_3kT_Ens05kT.colvars.traj".
colvars: Saving collective variables state to "rest.colvars.state".
colvars: Synchronizing (emptying the buffer of) trajectory file "Run3_IC_Rg_175A_Es_3kT_Ens05kT.colvars.traj".
colvars: Saving collective variables state to "rest.colvars.state".
colvars: Synchronizing (emptying the buffer of) trajectory file "Run3_IC_Rg_175A_Es_3kT_Ens05kT.colvars.traj".
colvars: Saving collective variables state to "rest.colvars.state".
colvars: Synchronizing (emptying the buffer of) trajectory file "Run3_IC_Rg_175A_Es_3kT_Ens05kT.colvars.traj".
colvars: Saving collective variables state to "rest.colvars.state".
colvars: Synchronizing (emptying the buffer of) trajectory file "Run3_IC_Rg_175A_Es_3kT_Ens05kT.colvars.traj".
colvars: Saving collective variables state to "rest.colvars.state".
colvars: Synchronizing (emptying the buffer of) trajectory file "Run3_IC_Rg_175A_Es_3kT_Ens05kT.colvars.traj".
colvars: Saving collective variables state to "rest.colvars.state".
colvars: Synchronizing (emptying the buffer of) trajectory file "Run3_IC_Rg_175A_Es_3kT_Ens05kT.colvars.traj".
colvars: Saving collective variables state to "rest.colvars.state".
colvars: Synchronizing (emptying the buffer of) trajectory file "Run3_IC_Rg_175A_Es_3kT_Ens05kT.colvars.traj".
colvars: Saving collective variables state to "rest.colvars.state".
colvars: Synchronizing (emptying the buffer of) trajectory file "Run3_IC_Rg_175A_Es_3kT_Ens05kT.colvars.traj".
colvars: Saving collective variables state to "rest.colvars.state".
colvars: Synchronizing (emptying the buffer of) trajectory file "Run3_IC_Rg_175A_Es_3kT_Ens05kT.colvars.traj".
colvars: Saving collective variables state to "rest.colvars.state".
colvars: Synchronizing (emptying the buffer of) trajectory file "Run3_IC_Rg_175A_Es_3kT_Ens05kT.colvars.traj".
colvars: Saving collective variables state to "rest.colvars.state".
colvars: Synchronizing (emptying the buffer of) trajectory file "Run3_IC_Rg_175A_Es_3kT_Ens05kT.colvars.traj".
colvars: Saving collective variables state to "rest.colvars.state".
colvars: Synchronizing (emptying the buffer of) trajectory file "Run3_IC_Rg_175A_Es_3kT_Ens05kT.colvars.traj".
colvars: Saving collective variables state to "rest.colvars.state".
colvars: Synchronizing (emptying the buffer of) trajectory file "Run3_IC_Rg_175A_Es_3kT_Ens05kT.colvars.traj".
colvars: Saving collective variables state to "rest.colvars.state".
colvars: Synchronizing (emptying the buffer of) trajectory file "Run3_IC_Rg_175A_Es_3kT_Ens05kT.colvars.traj".
colvars: Saving collective variables state to "rest.colvars.state".
colvars: Synchronizing (emptying the buffer of) trajectory file "Run3_IC_Rg_175A_Es_3kT_Ens05kT.colvars.traj".
colvars: Saving collective variables state to "rest.colvars.state".
colvars: Synchronizing (emptying the buffer of) trajectory file "Run3_IC_Rg_175A_Es_3kT_Ens05kT.colvars.traj".
colvars: Saving collective variables state to "rest.colvars.state".
colvars: Synchronizing (emptying the buffer of) trajectory file "Run3_IC_Rg_175A_Es_3kT_Ens05kT.colvars.traj".
colvars: Saving collective variables state to "rest.colvars.state".
colvars: Synchronizing (emptying the buffer of) trajectory file "Run3_IC_Rg_175A_Es_3kT_Ens05kT.colvars.traj".
colvars: Saving collective variables state to "rest.colvars.state".
 8000000   -2886.3667    1668.9954    4528.3956    1549.0136    3006.3485    303.89736     5215 
colvars: Synchronizing (emptying the buffer of) trajectory file "Run3_IC_Rg_175A_Es_3kT_Ens05kT.colvars.traj".
colvars: Saving collective variables state to "rest.colvars.state".
colvars: Synchronizing (emptying the buffer of) trajectory file "Run3_IC_Rg_175A_Es_3kT_Ens05kT.colvars.traj".
colvars: Saving collective variables state to "rest.colvars.state".
colvars: Synchronizing (emptying the buffer of) trajectory file "Run3_IC_Rg_175A_Es_3kT_Ens05kT.colvars.traj".
colvars: Saving collective variables state to "rest.colvars.state".
colvars: Synchronizing (emptying the buffer of) trajectory file "Run3_IC_Rg_175A_Es_3kT_Ens05kT.colvars.traj".
colvars: Saving collective variables state to "rest.colvars.state".
colvars: Synchronizing (emptying the buffer of) trajectory file "Run3_IC_Rg_175A_Es_3kT_Ens05kT.colvars.traj".
colvars: Saving collective variables state to "rest.colvars.state".
colvars: Synchronizing (emptying the buffer of) trajectory file "Run3_IC_Rg_175A_Es_3kT_Ens05kT.colvars.traj".
colvars: Saving collective variables state to "rest.colvars.state".
colvars: Synchronizing (emptying the buffer of) trajectory file "Run3_IC_Rg_175A_Es_3kT_Ens05kT.colvars.traj".
colvars: Saving collective variables state to "rest.colvars.state".
colvars: Synchronizing (emptying the buffer of) trajectory file "Run3_IC_Rg_175A_Es_3kT_Ens05kT.colvars.traj".
colvars: Saving collective variables state to "rest.colvars.state".
colvars: Synchronizing (emptying the buffer of) trajectory file "Run3_IC_Rg_175A_Es_3kT_Ens05kT.colvars.traj".
colvars: Saving collective variables state to "rest.colvars.state".
colvars: Synchronizing (emptying the buffer of) trajectory file "Run3_IC_Rg_175A_Es_3kT_Ens05kT.colvars.traj".
colvars: Saving collective variables state to "rest.colvars.state".
colvars: Synchronizing (emptying the buffer of) trajectory file "Run3_IC_Rg_175A_Es_3kT_Ens05kT.colvars.traj".
colvars: Saving collective variables state to "rest.colvars.state".
colvars: Synchronizing (emptying the buffer of) trajectory file "Run3_IC_Rg_175A_Es_3kT_Ens05kT.colvars.traj".
colvars: Saving collective variables state to "rest.colvars.state".
colvars: Synchronizing (emptying the buffer of) trajectory file "Run3_IC_Rg_175A_Es_3kT_Ens05kT.colvars.traj".
colvars: Saving collective variables state to "rest.colvars.state".
colvars: Synchronizing (emptying the buffer of) trajectory file "Run3_IC_Rg_175A_Es_3kT_Ens05kT.colvars.traj".
colvars: Saving collective variables state to "rest.colvars.state".
colvars: Synchronizing (emptying the buffer of) trajectory file "Run3_IC_Rg_175A_Es_3kT_Ens05kT.colvars.traj".
colvars: Saving collective variables state to "rest.colvars.state".
colvars: Synchronizing (emptying the buffer of) trajectory file "Run3_IC_Rg_175A_Es_3kT_Ens05kT.colvars.traj".
colvars: Saving collective variables state to "rest.colvars.state".
colvars: Synchronizing (emptying the buffer of) trajectory file "Run3_IC_Rg_175A_Es_3kT_Ens05kT.colvars.traj".
colvars: Saving collective variables state to "rest.colvars.state".
colvars: Synchronizing (emptying the buffer of) trajectory file "Run3_IC_Rg_175A_Es_3kT_Ens05kT.colvars.traj".
colvars: Saving collective variables state to "rest.colvars.state".
colvars: Synchronizing (emptying the buffer of) trajectory file "Run3_IC_Rg_175A_Es_3kT_Ens05kT.colvars.traj".
colvars: Saving collective variables state to "rest.colvars.state".
colvars: Synchronizing (emptying the buffer of) trajectory file "Run3_IC_Rg_175A_Es_3kT_Ens05kT.colvars.traj".
colvars: Saving collective variables state to "rest.colvars.state".
 9000000   -2854.8289    1661.3913    4662.6739    1509.9477    3006.2724    312.90868     5219 
colvars: Synchronizing (emptying the buffer of) trajectory file "Run3_IC_Rg_175A_Es_3kT_Ens05kT.colvars.traj".
colvars: Saving collective variables state to "rest.colvars.state".
colvars: Synchronizing (emptying the buffer of) trajectory file "Run3_IC_Rg_175A_Es_3kT_Ens05kT.colvars.traj".
colvars: Saving collective variables state to "rest.colvars.state".
colvars: Synchronizing (emptying the buffer of) trajectory file "Run3_IC_Rg_175A_Es_3kT_Ens05kT.colvars.traj".
colvars: Saving collective variables state to "rest.colvars.state".
colvars: Synchronizing (emptying the buffer of) trajectory file "Run3_IC_Rg_175A_Es_3kT_Ens05kT.colvars.traj".
colvars: Saving collective variables state to "rest.colvars.state".
colvars: Synchronizing (emptying the buffer of) trajectory file "Run3_IC_Rg_175A_Es_3kT_Ens05kT.colvars.traj".
colvars: Saving collective variables state to "rest.colvars.state".
colvars: Synchronizing (emptying the buffer of) trajectory file "Run3_IC_Rg_175A_Es_3kT_Ens05kT.colvars.traj".
colvars: Saving collective variables state to "rest.colvars.state".
colvars: Synchronizing (emptying the buffer of) trajectory file "Run3_IC_Rg_175A_Es_3kT_Ens05kT.colvars.traj".
colvars: Saving collective variables state to "rest.colvars.state".
colvars: Synchronizing (emptying the buffer of) trajectory file "Run3_IC_Rg_175A_Es_3kT_Ens05kT.colvars.traj".
colvars: Saving collective variables state to "rest.colvars.state".
colvars: Synchronizing (emptying the buffer of) trajectory file "Run3_IC_Rg_175A_Es_3kT_Ens05kT.colvars.traj".
colvars: Saving collective variables state to "rest.colvars.state".
colvars: Synchronizing (emptying the buffer of) trajectory file "Run3_IC_Rg_175A_Es_3kT_Ens05kT.colvars.traj".
colvars: Saving collective variables state to "rest.colvars.state".
colvars: Synchronizing (emptying the buffer of) trajectory file "Run3_IC_Rg_175A_Es_3kT_Ens05kT.colvars.traj".
colvars: Saving collective variables state to "rest.colvars.state".
colvars: Synchronizing (emptying the buffer of) trajectory file "Run3_IC_Rg_175A_Es_3kT_Ens05kT.colvars.traj".
colvars: Saving collective variables state to "rest.colvars.state".
colvars: Synchronizing (emptying the buffer of) trajectory file "Run3_IC_Rg_175A_Es_3kT_Ens05kT.colvars.traj".
colvars: Saving collective variables state to "rest.colvars.state".
colvars: Synchronizing (emptying the buffer of) trajectory file "Run3_IC_Rg_175A_Es_3kT_Ens05kT.colvars.traj".
colvars: Saving collective variables state to "rest.colvars.state".
colvars: Synchronizing (emptying the buffer of) trajectory file "Run3_IC_Rg_175A_Es_3kT_Ens05kT.colvars.traj".
colvars: Saving collective variables state to "rest.colvars.state".
colvars: Synchronizing (emptying the buffer of) trajectory file "Run3_IC_Rg_175A_Es_3kT_Ens05kT.colvars.traj".
colvars: Saving collective variables state to "rest.colvars.state".
colvars: Synchronizing (emptying the buffer of) trajectory file "Run3_IC_Rg_175A_Es_3kT_Ens05kT.colvars.traj".
colvars: Saving collective variables state to "rest.colvars.state".
colvars: Synchronizing (emptying the buffer of) trajectory file "Run3_IC_Rg_175A_Es_3kT_Ens05kT.colvars.traj".
colvars: Saving collective variables state to "rest.colvars.state".
colvars: Synchronizing (emptying the buffer of) trajectory file "Run3_IC_Rg_175A_Es_3kT_Ens05kT.colvars.traj".
colvars: Saving collective variables state to "rest.colvars.state".
colvars: Synchronizing (emptying the buffer of) trajectory file "Run3_IC_Rg_175A_Es_3kT_Ens05kT.colvars.traj".
colvars: Saving collective variables state to "rest.colvars.state".
10000000   -2983.1517    1594.3553    4578.4705    1555.1636    3022.3434    307.25785     5219 
colvars: Synchronizing (emptying the buffer of) trajectory file "Run3_IC_Rg_175A_Es_3kT_Ens05kT.colvars.traj".
colvars: Saving collective variables state to "rest.colvars.state".
colvars: Synchronizing (emptying the buffer of) trajectory file "Run3_IC_Rg_175A_Es_3kT_Ens05kT.colvars.traj".
colvars: Saving collective variables state to "rest.colvars.state".
colvars: Synchronizing (emptying the buffer of) trajectory file "Run3_IC_Rg_175A_Es_3kT_Ens05kT.colvars.traj".
colvars: Saving collective variables state to "rest.colvars.state".
colvars: Synchronizing (emptying the buffer of) trajectory file "Run3_IC_Rg_175A_Es_3kT_Ens05kT.colvars.traj".
colvars: Saving collective variables state to "rest.colvars.state".
colvars: Synchronizing (emptying the buffer of) trajectory file "Run3_IC_Rg_175A_Es_3kT_Ens05kT.colvars.traj".
colvars: Saving collective variables state to "rest.colvars.state".
colvars: Synchronizing (emptying the buffer of) trajectory file "Run3_IC_Rg_175A_Es_3kT_Ens05kT.colvars.traj".
colvars: Saving collective variables state to "rest.colvars.state".
colvars: Synchronizing (emptying the buffer of) trajectory file "Run3_IC_Rg_175A_Es_3kT_Ens05kT.colvars.traj".
colvars: Saving collective variables state to "rest.colvars.state".
colvars: Synchronizing (emptying the buffer of) trajectory file "Run3_IC_Rg_175A_Es_3kT_Ens05kT.colvars.traj".
colvars: Saving collective variables state to "rest.colvars.state".
colvars: Synchronizing (emptying the buffer of) trajectory file "Run3_IC_Rg_175A_Es_3kT_Ens05kT.colvars.traj".
colvars: Saving collective variables state to "rest.colvars.state".
colvars: Synchronizing (emptying the buffer of) trajectory file "Run3_IC_Rg_175A_Es_3kT_Ens05kT.colvars.traj".
colvars: Saving collective variables state to "rest.colvars.state".
colvars: Synchronizing (emptying the buffer of) trajectory file "Run3_IC_Rg_175A_Es_3kT_Ens05kT.colvars.traj".
colvars: Saving collective variables state to "rest.colvars.state".
colvars: Synchronizing (emptying the buffer of) trajectory file "Run3_IC_Rg_175A_Es_3kT_Ens05kT.colvars.traj".
colvars: Saving collective variables state to "rest.colvars.state".
colvars: Synchronizing (emptying the buffer of) trajectory file "Run3_IC_Rg_175A_Es_3kT_Ens05kT.colvars.traj".
colvars: Saving collective variables state to "rest.colvars.state".
colvars: Synchronizing (emptying the buffer of) trajectory file "Run3_IC_Rg_175A_Es_3kT_Ens05kT.colvars.traj".
colvars: Saving collective variables state to "rest.colvars.state".
colvars: Synchronizing (emptying the buffer of) trajectory file "Run3_IC_Rg_175A_Es_3kT_Ens05kT.colvars.traj".
colvars: Saving collective variables state to "rest.colvars.state".
colvars: Synchronizing (emptying the buffer of) trajectory file "Run3_IC_Rg_175A_Es_3kT_Ens05kT.colvars.traj".
colvars: Saving collective variables state to "rest.colvars.state".
colvars: Synchronizing (emptying the buffer of) trajectory file "Run3_IC_Rg_175A_Es_3kT_Ens05kT.colvars.traj".
colvars: Saving collective variables state to "rest.colvars.state".
colvars: Synchronizing (emptying the buffer of) trajectory file "Run3_IC_Rg_175A_Es_3kT_Ens05kT.colvars.traj".
colvars: Saving collective variables state to "rest.colvars.state".
colvars: Synchronizing (emptying the buffer of) trajectory file "Run3_IC_Rg_175A_Es_3kT_Ens05kT.colvars.traj".
colvars: Saving collective variables state to "rest.colvars.state".
colvars: Synchronizing (emptying the buffer of) trajectory file "Run3_IC_Rg_175A_Es_3kT_Ens05kT.colvars.traj".
colvars: Saving collective variables state to "rest.colvars.state".
11000000   -3198.5923    1351.1873    4619.4316    1528.3565    3021.4232    310.00672     5236 
colvars: Synchronizing (emptying the buffer of) trajectory file "Run3_IC_Rg_175A_Es_3kT_Ens05kT.colvars.traj".
colvars: Saving collective variables state to "rest.colvars.state".
colvars: Synchronizing (emptying the buffer of) trajectory file "Run3_IC_Rg_175A_Es_3kT_Ens05kT.colvars.traj".
colvars: Saving collective variables state to "rest.colvars.state".
colvars: Synchronizing (emptying the buffer of) trajectory file "Run3_IC_Rg_175A_Es_3kT_Ens05kT.colvars.traj".
colvars: Saving collective variables state to "rest.colvars.state".
colvars: Synchronizing (emptying the buffer of) trajectory file "Run3_IC_Rg_175A_Es_3kT_Ens05kT.colvars.traj".
colvars: Saving collective variables state to "rest.colvars.state".
colvars: Synchronizing (emptying the buffer of) trajectory file "Run3_IC_Rg_175A_Es_3kT_Ens05kT.colvars.traj".
colvars: Saving collective variables state to "rest.colvars.state".
colvars: Synchronizing (emptying the buffer of) trajectory file "Run3_IC_Rg_175A_Es_3kT_Ens05kT.colvars.traj".
colvars: Saving collective variables state to "rest.colvars.state".
colvars: Synchronizing (emptying the buffer of) trajectory file "Run3_IC_Rg_175A_Es_3kT_Ens05kT.colvars.traj".
colvars: Saving collective variables state to "rest.colvars.state".
colvars: Synchronizing (emptying the buffer of) trajectory file "Run3_IC_Rg_175A_Es_3kT_Ens05kT.colvars.traj".
colvars: Saving collective variables state to "rest.colvars.state".
colvars: Synchronizing (emptying the buffer of) trajectory file "Run3_IC_Rg_175A_Es_3kT_Ens05kT.colvars.traj".
colvars: Saving collective variables state to "rest.colvars.state".
colvars: Synchronizing (emptying the buffer of) trajectory file "Run3_IC_Rg_175A_Es_3kT_Ens05kT.colvars.traj".
colvars: Saving collective variables state to "rest.colvars.state".
colvars: Synchronizing (emptying the buffer of) trajectory file "Run3_IC_Rg_175A_Es_3kT_Ens05kT.colvars.traj".
colvars: Saving collective variables state to "rest.colvars.state".
colvars: Synchronizing (emptying the buffer of) trajectory file "Run3_IC_Rg_175A_Es_3kT_Ens05kT.colvars.traj".
colvars: Saving collective variables state to "rest.colvars.state".
colvars: Synchronizing (emptying the buffer of) trajectory file "Run3_IC_Rg_175A_Es_3kT_Ens05kT.colvars.traj".
colvars: Saving collective variables state to "rest.colvars.state".
colvars: Synchronizing (emptying the buffer of) trajectory file "Run3_IC_Rg_175A_Es_3kT_Ens05kT.colvars.traj".
colvars: Saving collective variables state to "rest.colvars.state".
colvars: Synchronizing (emptying the buffer of) trajectory file "Run3_IC_Rg_175A_Es_3kT_Ens05kT.colvars.traj".
colvars: Saving collective variables state to "rest.colvars.state".
colvars: Synchronizing (emptying the buffer of) trajectory file "Run3_IC_Rg_175A_Es_3kT_Ens05kT.colvars.traj".
colvars: Saving collective variables state to "rest.colvars.state".
colvars: Synchronizing (emptying the buffer of) trajectory file "Run3_IC_Rg_175A_Es_3kT_Ens05kT.colvars.traj".
colvars: Saving collective variables state to "rest.colvars.state".
colvars: Synchronizing (emptying the buffer of) trajectory file "Run3_IC_Rg_175A_Es_3kT_Ens05kT.colvars.traj".
colvars: Saving collective variables state to "rest.colvars.state".
colvars: Synchronizing (emptying the buffer of) trajectory file "Run3_IC_Rg_175A_Es_3kT_Ens05kT.colvars.traj".
colvars: Saving collective variables state to "rest.colvars.state".
colvars: Synchronizing (emptying the buffer of) trajectory file "Run3_IC_Rg_175A_Es_3kT_Ens05kT.colvars.traj".
colvars: Saving collective variables state to "rest.colvars.state".
12000000   -3315.8678    1329.5901     4570.962     1596.683    3048.7748    306.75396     5240 
colvars: Synchronizing (emptying the buffer of) trajectory file "Run3_IC_Rg_175A_Es_3kT_Ens05kT.colvars.traj".
colvars: Saving collective variables state to "rest.colvars.state".
colvars: Synchronizing (emptying the buffer of) trajectory file "Run3_IC_Rg_175A_Es_3kT_Ens05kT.colvars.traj".
colvars: Saving collective variables state to "rest.colvars.state".
colvars: Synchronizing (emptying the buffer of) trajectory file "Run3_IC_Rg_175A_Es_3kT_Ens05kT.colvars.traj".
colvars: Saving collective variables state to "rest.colvars.state".
colvars: Synchronizing (emptying the buffer of) trajectory file "Run3_IC_Rg_175A_Es_3kT_Ens05kT.colvars.traj".
colvars: Saving collective variables state to "rest.colvars.state".
colvars: Synchronizing (emptying the buffer of) trajectory file "Run3_IC_Rg_175A_Es_3kT_Ens05kT.colvars.traj".
colvars: Saving collective variables state to "rest.colvars.state".
colvars: Synchronizing (emptying the buffer of) trajectory file "Run3_IC_Rg_175A_Es_3kT_Ens05kT.colvars.traj".
colvars: Saving collective variables state to "rest.colvars.state".
colvars: Synchronizing (emptying the buffer of) trajectory file "Run3_IC_Rg_175A_Es_3kT_Ens05kT.colvars.traj".
colvars: Saving collective variables state to "rest.colvars.state".
colvars: Synchronizing (emptying the buffer of) trajectory file "Run3_IC_Rg_175A_Es_3kT_Ens05kT.colvars.traj".
colvars: Saving collective variables state to "rest.colvars.state".
colvars: Synchronizing (emptying the buffer of) trajectory file "Run3_IC_Rg_175A_Es_3kT_Ens05kT.colvars.traj".
colvars: Saving collective variables state to "rest.colvars.state".
colvars: Synchronizing (emptying the buffer of) trajectory file "Run3_IC_Rg_175A_Es_3kT_Ens05kT.colvars.traj".
colvars: Saving collective variables state to "rest.colvars.state".
colvars: Synchronizing (emptying the buffer of) trajectory file "Run3_IC_Rg_175A_Es_3kT_Ens05kT.colvars.traj".
colvars: Saving collective variables state to "rest.colvars.state".
colvars: Synchronizing (emptying the buffer of) trajectory file "Run3_IC_Rg_175A_Es_3kT_Ens05kT.colvars.traj".
colvars: Saving collective variables state to "rest.colvars.state".
colvars: Synchronizing (emptying the buffer of) trajectory file "Run3_IC_Rg_175A_Es_3kT_Ens05kT.colvars.traj".
colvars: Saving collective variables state to "rest.colvars.state".
colvars: Synchronizing (emptying the buffer of) trajectory file "Run3_IC_Rg_175A_Es_3kT_Ens05kT.colvars.traj".
colvars: Saving collective variables state to "rest.colvars.state".
colvars: Synchronizing (emptying the buffer of) trajectory file "Run3_IC_Rg_175A_Es_3kT_Ens05kT.colvars.traj".
colvars: Saving collective variables state to "rest.colvars.state".
colvars: Synchronizing (emptying the buffer of) trajectory file "Run3_IC_Rg_175A_Es_3kT_Ens05kT.colvars.traj".
colvars: Saving collective variables state to "rest.colvars.state".
colvars: Synchronizing (emptying the buffer of) trajectory file "Run3_IC_Rg_175A_Es_3kT_Ens05kT.colvars.traj".
colvars: Saving collective variables state to "rest.colvars.state".
colvars: Synchronizing (emptying the buffer of) trajectory file "Run3_IC_Rg_175A_Es_3kT_Ens05kT.colvars.traj".
colvars: Saving collective variables state to "rest.colvars.state".
colvars: Synchronizing (emptying the buffer of) trajectory file "Run3_IC_Rg_175A_Es_3kT_Ens05kT.colvars.traj".
colvars: Saving collective variables state to "rest.colvars.state".
colvars: Synchronizing (emptying the buffer of) trajectory file "Run3_IC_Rg_175A_Es_3kT_Ens05kT.colvars.traj".
colvars: Saving collective variables state to "rest.colvars.state".
13000000   -3363.0965    1212.1696     4618.207    1537.9394    3037.3267    309.92453     5237 
colvars: Synchronizing (emptying the buffer of) trajectory file "Run3_IC_Rg_175A_Es_3kT_Ens05kT.colvars.traj".
colvars: Saving collective variables state to "rest.colvars.state".
colvars: Synchronizing (emptying the buffer of) trajectory file "Run3_IC_Rg_175A_Es_3kT_Ens05kT.colvars.traj".
colvars: Saving collective variables state to "rest.colvars.state".
colvars: Synchronizing (emptying the buffer of) trajectory file "Run3_IC_Rg_175A_Es_3kT_Ens05kT.colvars.traj".
colvars: Saving collective variables state to "rest.colvars.state".
colvars: Synchronizing (emptying the buffer of) trajectory file "Run3_IC_Rg_175A_Es_3kT_Ens05kT.colvars.traj".
colvars: Saving collective variables state to "rest.colvars.state".
colvars: Synchronizing (emptying the buffer of) trajectory file "Run3_IC_Rg_175A_Es_3kT_Ens05kT.colvars.traj".
colvars: Saving collective variables state to "rest.colvars.state".
colvars: Synchronizing (emptying the buffer of) trajectory file "Run3_IC_Rg_175A_Es_3kT_Ens05kT.colvars.traj".
colvars: Saving collective variables state to "rest.colvars.state".
colvars: Synchronizing (emptying the buffer of) trajectory file "Run3_IC_Rg_175A_Es_3kT_Ens05kT.colvars.traj".
colvars: Saving collective variables state to "rest.colvars.state".
colvars: Synchronizing (emptying the buffer of) trajectory file "Run3_IC_Rg_175A_Es_3kT_Ens05kT.colvars.traj".
colvars: Saving collective variables state to "rest.colvars.state".
colvars: Synchronizing (emptying the buffer of) trajectory file "Run3_IC_Rg_175A_Es_3kT_Ens05kT.colvars.traj".
colvars: Saving collective variables state to "rest.colvars.state".
colvars: Synchronizing (emptying the buffer of) trajectory file "Run3_IC_Rg_175A_Es_3kT_Ens05kT.colvars.traj".
colvars: Saving collective variables state to "rest.colvars.state".
colvars: Synchronizing (emptying the buffer of) trajectory file "Run3_IC_Rg_175A_Es_3kT_Ens05kT.colvars.traj".
colvars: Saving collective variables state to "rest.colvars.state".
colvars: Synchronizing (emptying the buffer of) trajectory file "Run3_IC_Rg_175A_Es_3kT_Ens05kT.colvars.traj".
colvars: Saving collective variables state to "rest.colvars.state".
colvars: Synchronizing (emptying the buffer of) trajectory file "Run3_IC_Rg_175A_Es_3kT_Ens05kT.colvars.traj".
colvars: Saving collective variables state to "rest.colvars.state".
colvars: Synchronizing (emptying the buffer of) trajectory file "Run3_IC_Rg_175A_Es_3kT_Ens05kT.colvars.traj".
colvars: Saving collective variables state to "rest.colvars.state".
colvars: Synchronizing (emptying the buffer of) trajectory file "Run3_IC_Rg_175A_Es_3kT_Ens05kT.colvars.traj".
colvars: Saving collective variables state to "rest.colvars.state".
colvars: Synchronizing (emptying the buffer of) trajectory file "Run3_IC_Rg_175A_Es_3kT_Ens05kT.colvars.traj".
colvars: Saving collective variables state to "rest.colvars.state".
colvars: Synchronizing (emptying the buffer of) trajectory file "Run3_IC_Rg_175A_Es_3kT_Ens05kT.colvars.traj".
colvars: Saving collective variables state to "rest.colvars.state".
colvars: Synchronizing (emptying the buffer of) trajectory file "Run3_IC_Rg_175A_Es_3kT_Ens05kT.colvars.traj".
colvars: Saving collective variables state to "rest.colvars.state".
colvars: Synchronizing (emptying the buffer of) trajectory file "Run3_IC_Rg_175A_Es_3kT_Ens05kT.colvars.traj".
colvars: Saving collective variables state to "rest.colvars.state".
colvars: Synchronizing (emptying the buffer of) trajectory file "Run3_IC_Rg_175A_Es_3kT_Ens05kT.colvars.traj".
colvars: Saving collective variables state to "rest.colvars.state".
14000000   -3389.6853    1115.0186    4510.0791    1524.9252    2979.7786    302.66815     5240 
colvars: Synchronizing (emptying the buffer of) trajectory file "Run3_IC_Rg_175A_Es_3kT_Ens05kT.colvars.traj".
colvars: Saving collective variables state to "rest.colvars.state".
colvars: Synchronizing (emptying the buffer of) trajectory file "Run3_IC_Rg_175A_Es_3kT_Ens05kT.colvars.traj".
colvars: Saving collective variables state to "rest.colvars.state".
colvars: Synchronizing (emptying the buffer of) trajectory file "Run3_IC_Rg_175A_Es_3kT_Ens05kT.colvars.traj".
colvars: Saving collective variables state to "rest.colvars.state".
colvars: Synchronizing (emptying the buffer of) trajectory file "Run3_IC_Rg_175A_Es_3kT_Ens05kT.colvars.traj".
colvars: Saving collective variables state to "rest.colvars.state".
colvars: Synchronizing (emptying the buffer of) trajectory file "Run3_IC_Rg_175A_Es_3kT_Ens05kT.colvars.traj".
colvars: Saving collective variables state to "rest.colvars.state".
colvars: Synchronizing (emptying the buffer of) trajectory file "Run3_IC_Rg_175A_Es_3kT_Ens05kT.colvars.traj".
colvars: Saving collective variables state to "rest.colvars.state".
colvars: Synchronizing (emptying the buffer of) trajectory file "Run3_IC_Rg_175A_Es_3kT_Ens05kT.colvars.traj".
colvars: Saving collective variables state to "rest.colvars.state".
colvars: Synchronizing (emptying the buffer of) trajectory file "Run3_IC_Rg_175A_Es_3kT_Ens05kT.colvars.traj".
colvars: Saving collective variables state to "rest.colvars.state".
colvars: Synchronizing (emptying the buffer of) trajectory file "Run3_IC_Rg_175A_Es_3kT_Ens05kT.colvars.traj".
colvars: Saving collective variables state to "rest.colvars.state".
colvars: Synchronizing (emptying the buffer of) trajectory file "Run3_IC_Rg_175A_Es_3kT_Ens05kT.colvars.traj".
colvars: Saving collective variables state to "rest.colvars.state".
colvars: Synchronizing (emptying the buffer of) trajectory file "Run3_IC_Rg_175A_Es_3kT_Ens05kT.colvars.traj".
colvars: Saving collective variables state to "rest.colvars.state".
colvars: Synchronizing (emptying the buffer of) trajectory file "Run3_IC_Rg_175A_Es_3kT_Ens05kT.colvars.traj".
colvars: Saving collective variables state to "rest.colvars.state".
colvars: Synchronizing (emptying the buffer of) trajectory file "Run3_IC_Rg_175A_Es_3kT_Ens05kT.colvars.traj".
colvars: Saving collective variables state to "rest.colvars.state".
colvars: Synchronizing (emptying the buffer of) trajectory file "Run3_IC_Rg_175A_Es_3kT_Ens05kT.colvars.traj".
colvars: Saving collective variables state to "rest.colvars.state".
colvars: Synchronizing (emptying the buffer of) trajectory file "Run3_IC_Rg_175A_Es_3kT_Ens05kT.colvars.traj".
colvars: Saving collective variables state to "rest.colvars.state".
colvars: Synchronizing (emptying the buffer of) trajectory file "Run3_IC_Rg_175A_Es_3kT_Ens05kT.colvars.traj".
colvars: Saving collective variables state to "rest.colvars.state".
colvars: Synchronizing (emptying the buffer of) trajectory file "Run3_IC_Rg_175A_Es_3kT_Ens05kT.colvars.traj".
colvars: Saving collective variables state to "rest.colvars.state".
colvars: Synchronizing (emptying the buffer of) trajectory file "Run3_IC_Rg_175A_Es_3kT_Ens05kT.colvars.traj".
colvars: Saving collective variables state to "rest.colvars.state".
colvars: Synchronizing (emptying the buffer of) trajectory file "Run3_IC_Rg_175A_Es_3kT_Ens05kT.colvars.traj".
colvars: Saving collective variables state to "rest.colvars.state".
colvars: Synchronizing (emptying the buffer of) trajectory file "Run3_IC_Rg_175A_Es_3kT_Ens05kT.colvars.traj".
colvars: Saving collective variables state to "rest.colvars.state".
15000000   -3468.8503    1005.1051    4722.6665    1552.9631    2920.9923    316.93474     5244 
colvars: Synchronizing (emptying the buffer of) trajectory file "Run3_IC_Rg_175A_Es_3kT_Ens05kT.colvars.traj".
colvars: Saving collective variables state to "rest.colvars.state".
colvars: Synchronizing (emptying the buffer of) trajectory file "Run3_IC_Rg_175A_Es_3kT_Ens05kT.colvars.traj".
colvars: Saving collective variables state to "rest.colvars.state".
colvars: Synchronizing (emptying the buffer of) trajectory file "Run3_IC_Rg_175A_Es_3kT_Ens05kT.colvars.traj".
colvars: Saving collective variables state to "rest.colvars.state".
colvars: Synchronizing (emptying the buffer of) trajectory file "Run3_IC_Rg_175A_Es_3kT_Ens05kT.colvars.traj".
colvars: Saving collective variables state to "rest.colvars.state".
colvars: Synchronizing (emptying the buffer of) trajectory file "Run3_IC_Rg_175A_Es_3kT_Ens05kT.colvars.traj".
colvars: Saving collective variables state to "rest.colvars.state".
colvars: Synchronizing (emptying the buffer of) trajectory file "Run3_IC_Rg_175A_Es_3kT_Ens05kT.colvars.traj".
colvars: Saving collective variables state to "rest.colvars.state".
colvars: Synchronizing (emptying the buffer of) trajectory file "Run3_IC_Rg_175A_Es_3kT_Ens05kT.colvars.traj".
colvars: Saving collective variables state to "rest.colvars.state".
colvars: Synchronizing (emptying the buffer of) trajectory file "Run3_IC_Rg_175A_Es_3kT_Ens05kT.colvars.traj".
colvars: Saving collective variables state to "rest.colvars.state".
colvars: Synchronizing (emptying the buffer of) trajectory file "Run3_IC_Rg_175A_Es_3kT_Ens05kT.colvars.traj".
colvars: Saving collective variables state to "rest.colvars.state".
colvars: Synchronizing (emptying the buffer of) trajectory file "Run3_IC_Rg_175A_Es_3kT_Ens05kT.colvars.traj".
colvars: Saving collective variables state to "rest.colvars.state".
colvars: Synchronizing (emptying the buffer of) trajectory file "Run3_IC_Rg_175A_Es_3kT_Ens05kT.colvars.traj".
colvars: Saving collective variables state to "rest.colvars.state".
colvars: Synchronizing (emptying the buffer of) trajectory file "Run3_IC_Rg_175A_Es_3kT_Ens05kT.colvars.traj".
colvars: Saving collective variables state to "rest.colvars.state".
colvars: Synchronizing (emptying the buffer of) trajectory file "Run3_IC_Rg_175A_Es_3kT_Ens05kT.colvars.traj".
colvars: Saving collective variables state to "rest.colvars.state".
colvars: Synchronizing (emptying the buffer of) trajectory file "Run3_IC_Rg_175A_Es_3kT_Ens05kT.colvars.traj".
colvars: Saving collective variables state to "rest.colvars.state".
colvars: Synchronizing (emptying the buffer of) trajectory file "Run3_IC_Rg_175A_Es_3kT_Ens05kT.colvars.traj".
colvars: Saving collective variables state to "rest.colvars.state".
colvars: Synchronizing (emptying the buffer of) trajectory file "Run3_IC_Rg_175A_Es_3kT_Ens05kT.colvars.traj".
colvars: Saving collective variables state to "rest.colvars.state".
colvars: Synchronizing (emptying the buffer of) trajectory file "Run3_IC_Rg_175A_Es_3kT_Ens05kT.colvars.traj".
colvars: Saving collective variables state to "rest.colvars.state".
colvars: Synchronizing (emptying the buffer of) trajectory file "Run3_IC_Rg_175A_Es_3kT_Ens05kT.colvars.traj".
colvars: Saving collective variables state to "rest.colvars.state".
colvars: Synchronizing (emptying the buffer of) trajectory file "Run3_IC_Rg_175A_Es_3kT_Ens05kT.colvars.traj".
colvars: Saving collective variables state to "rest.colvars.state".
colvars: Synchronizing (emptying the buffer of) trajectory file "Run3_IC_Rg_175A_Es_3kT_Ens05kT.colvars.traj".
colvars: Saving collective variables state to "rest.colvars.state".
16000000   -3473.0144    1036.1158    4582.1421    1522.8334    2986.2968    307.50424     5246 
colvars: Synchronizing (emptying the buffer of) trajectory file "Run3_IC_Rg_175A_Es_3kT_Ens05kT.colvars.traj".
colvars: Saving collective variables state to "rest.colvars.state".
colvars: Synchronizing (emptying the buffer of) trajectory file "Run3_IC_Rg_175A_Es_3kT_Ens05kT.colvars.traj".
colvars: Saving collective variables state to "rest.colvars.state".
colvars: Synchronizing (emptying the buffer of) trajectory file "Run3_IC_Rg_175A_Es_3kT_Ens05kT.colvars.traj".
colvars: Saving collective variables state to "rest.colvars.state".
colvars: Synchronizing (emptying the buffer of) trajectory file "Run3_IC_Rg_175A_Es_3kT_Ens05kT.colvars.traj".
colvars: Saving collective variables state to "rest.colvars.state".
colvars: Synchronizing (emptying the buffer of) trajectory file "Run3_IC_Rg_175A_Es_3kT_Ens05kT.colvars.traj".
colvars: Saving collective variables state to "rest.colvars.state".
colvars: Synchronizing (emptying the buffer of) trajectory file "Run3_IC_Rg_175A_Es_3kT_Ens05kT.colvars.traj".
colvars: Saving collective variables state to "rest.colvars.state".
colvars: Synchronizing (emptying the buffer of) trajectory file "Run3_IC_Rg_175A_Es_3kT_Ens05kT.colvars.traj".
colvars: Saving collective variables state to "rest.colvars.state".
colvars: Synchronizing (emptying the buffer of) trajectory file "Run3_IC_Rg_175A_Es_3kT_Ens05kT.colvars.traj".
colvars: Saving collective variables state to "rest.colvars.state".
colvars: Synchronizing (emptying the buffer of) trajectory file "Run3_IC_Rg_175A_Es_3kT_Ens05kT.colvars.traj".
colvars: Saving collective variables state to "rest.colvars.state".
colvars: Synchronizing (emptying the buffer of) trajectory file "Run3_IC_Rg_175A_Es_3kT_Ens05kT.colvars.traj".
colvars: Saving collective variables state to "rest.colvars.state".
colvars: Synchronizing (emptying the buffer of) trajectory file "Run3_IC_Rg_175A_Es_3kT_Ens05kT.colvars.traj".
colvars: Saving collective variables state to "rest.colvars.state".
colvars: Synchronizing (emptying the buffer of) trajectory file "Run3_IC_Rg_175A_Es_3kT_Ens05kT.colvars.traj".
colvars: Saving collective variables state to "rest.colvars.state".
colvars: Synchronizing (emptying the buffer of) trajectory file "Run3_IC_Rg_175A_Es_3kT_Ens05kT.colvars.traj".
colvars: Saving collective variables state to "rest.colvars.state".
colvars: Synchronizing (emptying the buffer of) trajectory file "Run3_IC_Rg_175A_Es_3kT_Ens05kT.colvars.traj".
colvars: Saving collective variables state to "rest.colvars.state".
colvars: Synchronizing (emptying the buffer of) trajectory file "Run3_IC_Rg_175A_Es_3kT_Ens05kT.colvars.traj".
colvars: Saving collective variables state to "rest.colvars.state".
colvars: Synchronizing (emptying the buffer of) trajectory file "Run3_IC_Rg_175A_Es_3kT_Ens05kT.colvars.traj".
colvars: Saving collective variables state to "rest.colvars.state".
colvars: Synchronizing (emptying the buffer of) trajectory file "Run3_IC_Rg_175A_Es_3kT_Ens05kT.colvars.traj".
colvars: Saving collective variables state to "rest.colvars.state".
colvars: Synchronizing (emptying the buffer of) trajectory file "Run3_IC_Rg_175A_Es_3kT_Ens05kT.colvars.traj".
colvars: Saving collective variables state to "rest.colvars.state".
colvars: Synchronizing (emptying the buffer of) trajectory file "Run3_IC_Rg_175A_Es_3kT_Ens05kT.colvars.traj".
colvars: Saving collective variables state to "rest.colvars.state".
colvars: Synchronizing (emptying the buffer of) trajectory file "Run3_IC_Rg_175A_Es_3kT_Ens05kT.colvars.traj".
colvars: Saving collective variables state to "rest.colvars.state".
17000000   -3467.6126    1097.8066    4562.1782    1543.1055    3022.3137    306.16448     5238 
colvars: Synchronizing (emptying the buffer of) trajectory file "Run3_IC_Rg_175A_Es_3kT_Ens05kT.colvars.traj".
colvars: Saving collective variables state to "rest.colvars.state".
colvars: Synchronizing (emptying the buffer of) trajectory file "Run3_IC_Rg_175A_Es_3kT_Ens05kT.colvars.traj".
colvars: Saving collective variables state to "rest.colvars.state".
colvars: Synchronizing (emptying the buffer of) trajectory file "Run3_IC_Rg_175A_Es_3kT_Ens05kT.colvars.traj".
colvars: Saving collective variables state to "rest.colvars.state".
colvars: Synchronizing (emptying the buffer of) trajectory file "Run3_IC_Rg_175A_Es_3kT_Ens05kT.colvars.traj".
colvars: Saving collective variables state to "rest.colvars.state".
colvars: Synchronizing (emptying the buffer of) trajectory file "Run3_IC_Rg_175A_Es_3kT_Ens05kT.colvars.traj".
colvars: Saving collective variables state to "rest.colvars.state".
colvars: Synchronizing (emptying the buffer of) trajectory file "Run3_IC_Rg_175A_Es_3kT_Ens05kT.colvars.traj".
colvars: Saving collective variables state to "rest.colvars.state".
colvars: Synchronizing (emptying the buffer of) trajectory file "Run3_IC_Rg_175A_Es_3kT_Ens05kT.colvars.traj".
colvars: Saving collective variables state to "rest.colvars.state".
colvars: Synchronizing (emptying the buffer of) trajectory file "Run3_IC_Rg_175A_Es_3kT_Ens05kT.colvars.traj".
colvars: Saving collective variables state to "rest.colvars.state".
colvars: Synchronizing (emptying the buffer of) trajectory file "Run3_IC_Rg_175A_Es_3kT_Ens05kT.colvars.traj".
colvars: Saving collective variables state to "rest.colvars.state".
colvars: Synchronizing (emptying the buffer of) trajectory file "Run3_IC_Rg_175A_Es_3kT_Ens05kT.colvars.traj".
colvars: Saving collective variables state to "rest.colvars.state".
colvars: Synchronizing (emptying the buffer of) trajectory file "Run3_IC_Rg_175A_Es_3kT_Ens05kT.colvars.traj".
colvars: Saving collective variables state to "rest.colvars.state".
colvars: Synchronizing (emptying the buffer of) trajectory file "Run3_IC_Rg_175A_Es_3kT_Ens05kT.colvars.traj".
colvars: Saving collective variables state to "rest.colvars.state".
colvars: Synchronizing (emptying the buffer of) trajectory file "Run3_IC_Rg_175A_Es_3kT_Ens05kT.colvars.traj".
colvars: Saving collective variables state to "rest.colvars.state".
colvars: Synchronizing (emptying the buffer of) trajectory file "Run3_IC_Rg_175A_Es_3kT_Ens05kT.colvars.traj".
colvars: Saving collective variables state to "rest.colvars.state".
colvars: Synchronizing (emptying the buffer of) trajectory file "Run3_IC_Rg_175A_Es_3kT_Ens05kT.colvars.traj".
colvars: Saving collective variables state to "rest.colvars.state".
colvars: Synchronizing (emptying the buffer of) trajectory file "Run3_IC_Rg_175A_Es_3kT_Ens05kT.colvars.traj".
colvars: Saving collective variables state to "rest.colvars.state".
colvars: Synchronizing (emptying the buffer of) trajectory file "Run3_IC_Rg_175A_Es_3kT_Ens05kT.colvars.traj".
colvars: Saving collective variables state to "rest.colvars.state".
colvars: Synchronizing (emptying the buffer of) trajectory file "Run3_IC_Rg_175A_Es_3kT_Ens05kT.colvars.traj".
colvars: Saving collective variables state to "rest.colvars.state".
colvars: Synchronizing (emptying the buffer of) trajectory file "Run3_IC_Rg_175A_Es_3kT_Ens05kT.colvars.traj".
colvars: Saving collective variables state to "rest.colvars.state".
colvars: Synchronizing (emptying the buffer of) trajectory file "Run3_IC_Rg_175A_Es_3kT_Ens05kT.colvars.traj".
colvars: Saving collective variables state to "rest.colvars.state".
18000000   -3543.3769    984.86286    4583.4516    1565.2821    2962.9577    307.59212     5246 
colvars: Synchronizing (emptying the buffer of) trajectory file "Run3_IC_Rg_175A_Es_3kT_Ens05kT.colvars.traj".
colvars: Saving collective variables state to "rest.colvars.state".
colvars: Synchronizing (emptying the buffer of) trajectory file "Run3_IC_Rg_175A_Es_3kT_Ens05kT.colvars.traj".
colvars: Saving collective variables state to "rest.colvars.state".
colvars: Synchronizing (emptying the buffer of) trajectory file "Run3_IC_Rg_175A_Es_3kT_Ens05kT.colvars.traj".
colvars: Saving collective variables state to "rest.colvars.state".
colvars: Synchronizing (emptying the buffer of) trajectory file "Run3_IC_Rg_175A_Es_3kT_Ens05kT.colvars.traj".
colvars: Saving collective variables state to "rest.colvars.state".
colvars: Synchronizing (emptying the buffer of) trajectory file "Run3_IC_Rg_175A_Es_3kT_Ens05kT.colvars.traj".
colvars: Saving collective variables state to "rest.colvars.state".
colvars: Synchronizing (emptying the buffer of) trajectory file "Run3_IC_Rg_175A_Es_3kT_Ens05kT.colvars.traj".
colvars: Saving collective variables state to "rest.colvars.state".
colvars: Synchronizing (emptying the buffer of) trajectory file "Run3_IC_Rg_175A_Es_3kT_Ens05kT.colvars.traj".
colvars: Saving collective variables state to "rest.colvars.state".
colvars: Synchronizing (emptying the buffer of) trajectory file "Run3_IC_Rg_175A_Es_3kT_Ens05kT.colvars.traj".
colvars: Saving collective variables state to "rest.colvars.state".
colvars: Synchronizing (emptying the buffer of) trajectory file "Run3_IC_Rg_175A_Es_3kT_Ens05kT.colvars.traj".
colvars: Saving collective variables state to "rest.colvars.state".
colvars: Synchronizing (emptying the buffer of) trajectory file "Run3_IC_Rg_175A_Es_3kT_Ens05kT.colvars.traj".
colvars: Saving collective variables state to "rest.colvars.state".
colvars: Synchronizing (emptying the buffer of) trajectory file "Run3_IC_Rg_175A_Es_3kT_Ens05kT.colvars.traj".
colvars: Saving collective variables state to "rest.colvars.state".
colvars: Synchronizing (emptying the buffer of) trajectory file "Run3_IC_Rg_175A_Es_3kT_Ens05kT.colvars.traj".
colvars: Saving collective variables state to "rest.colvars.state".
colvars: Synchronizing (emptying the buffer of) trajectory file "Run3_IC_Rg_175A_Es_3kT_Ens05kT.colvars.traj".
colvars: Saving collective variables state to "rest.colvars.state".
colvars: Synchronizing (emptying the buffer of) trajectory file "Run3_IC_Rg_175A_Es_3kT_Ens05kT.colvars.traj".
colvars: Saving collective variables state to "rest.colvars.state".
colvars: Synchronizing (emptying the buffer of) trajectory file "Run3_IC_Rg_175A_Es_3kT_Ens05kT.colvars.traj".
colvars: Saving collective variables state to "rest.colvars.state".
colvars: Synchronizing (emptying the buffer of) trajectory file "Run3_IC_Rg_175A_Es_3kT_Ens05kT.colvars.traj".
colvars: Saving collective variables state to "rest.colvars.state".
colvars: Synchronizing (emptying the buffer of) trajectory file "Run3_IC_Rg_175A_Es_3kT_Ens05kT.colvars.traj".
colvars: Saving collective variables state to "rest.colvars.state".
colvars: Synchronizing (emptying the buffer of) trajectory file "Run3_IC_Rg_175A_Es_3kT_Ens05kT.colvars.traj".
colvars: Saving collective variables state to "rest.colvars.state".
colvars: Synchronizing (emptying the buffer of) trajectory file "Run3_IC_Rg_175A_Es_3kT_Ens05kT.colvars.traj".
colvars: Saving collective variables state to "rest.colvars.state".
colvars: Synchronizing (emptying the buffer of) trajectory file "Run3_IC_Rg_175A_Es_3kT_Ens05kT.colvars.traj".
colvars: Saving collective variables state to "rest.colvars.state".
19000000   -3463.5136    1030.3517    4552.5671    1524.8709    2968.9943    305.51949     5247 
[...]
colvars: Saving collective variables state to "rest.colvars.state".
195000000   -3820.5556    536.31144    4585.8505     1563.708     2793.159    307.75311     5253 
colvars: Synchronizing (emptying the buffer of) trajectory file "Run3_IC_Rg_175A_Es_3kT_Ens05kT.colvars.traj".
colvars: Saving collective variables state to "rest.colvars.state".
colvars: Synchronizing (emptying the buffer of) trajectory file "Run3_IC_Rg_175A_Es_3kT_Ens05kT.colvars.traj".
colvars: Saving collective variables state to "rest.colvars.state".
colvars: Synchronizing (emptying the buffer of) trajectory file "Run3_IC_Rg_175A_Es_3kT_Ens05kT.colvars.traj".
colvars: Saving collective variables state to "rest.colvars.state".
colvars: Synchronizing (emptying the buffer of) trajectory file "Run3_IC_Rg_175A_Es_3kT_Ens05kT.colvars.traj".
colvars: Saving collective variables state to "rest.colvars.state".
colvars: Synchronizing (emptying the buffer of) trajectory file "Run3_IC_Rg_175A_Es_3kT_Ens05kT.colvars.traj".
colvars: Saving collective variables state to "rest.colvars.state".
colvars: Synchronizing (emptying the buffer of) trajectory file "Run3_IC_Rg_175A_Es_3kT_Ens05kT.colvars.traj".
colvars: Saving collective variables state to "rest.colvars.state".
colvars: Synchronizing (emptying the buffer of) trajectory file "Run3_IC_Rg_175A_Es_3kT_Ens05kT.colvars.traj".
colvars: Saving collective variables state to "rest.colvars.state".
colvars: Synchronizing (emptying the buffer of) trajectory file "Run3_IC_Rg_175A_Es_3kT_Ens05kT.colvars.traj".
colvars: Saving collective variables state to "rest.colvars.state".
colvars: Synchronizing (emptying the buffer of) trajectory file "Run3_IC_Rg_175A_Es_3kT_Ens05kT.colvars.traj".
colvars: Saving collective variables state to "rest.colvars.state".
colvars: Synchronizing (emptying the buffer of) trajectory file "Run3_IC_Rg_175A_Es_3kT_Ens05kT.colvars.traj".
colvars: Saving collective variables state to "rest.colvars.state".
colvars: Synchronizing (emptying the buffer of) trajectory file "Run3_IC_Rg_175A_Es_3kT_Ens05kT.colvars.traj".
colvars: Saving collective variables state to "rest.colvars.state".
colvars: Synchronizing (emptying the buffer of) trajectory file "Run3_IC_Rg_175A_Es_3kT_Ens05kT.colvars.traj".
colvars: Saving collective variables state to "rest.colvars.state".
colvars: Synchronizing (emptying the buffer of) trajectory file "Run3_IC_Rg_175A_Es_3kT_Ens05kT.colvars.traj".
colvars: Saving collective variables state to "rest.colvars.state".
colvars: Synchronizing (emptying the buffer of) trajectory file "Run3_IC_Rg_175A_Es_3kT_Ens05kT.colvars.traj".
colvars: Saving collective variables state to "rest.colvars.state".
colvars: Synchronizing (emptying the buffer of) trajectory file "Run3_IC_Rg_175A_Es_3kT_Ens05kT.colvars.traj".
colvars: Saving collective variables state to "rest.colvars.state".
colvars: Synchronizing (emptying the buffer of) trajectory file "Run3_IC_Rg_175A_Es_3kT_Ens05kT.colvars.traj".
colvars: Saving collective variables state to "rest.colvars.state".
colvars: Synchronizing (emptying the buffer of) trajectory file "Run3_IC_Rg_175A_Es_3kT_Ens05kT.colvars.traj".
colvars: Saving collective variables state to "rest.colvars.state".
colvars: Synchronizing (emptying the buffer of) trajectory file "Run3_IC_Rg_175A_Es_3kT_Ens05kT.colvars.traj".
colvars: Saving collective variables state to "rest.colvars.state".
colvars: Synchronizing (emptying the buffer of) trajectory file "Run3_IC_Rg_175A_Es_3kT_Ens05kT.colvars.traj".
colvars: Saving collective variables state to "rest.colvars.state".
colvars: Synchronizing (emptying the buffer of) trajectory file "Run3_IC_Rg_175A_Es_3kT_Ens05kT.colvars.traj".
colvars: Saving collective variables state to "rest.colvars.state".
196000000   -3844.9189    557.68123    4593.2486    1589.3996    2813.2006    308.24959     5258 
colvars: Synchronizing (emptying the buffer of) trajectory file "Run3_IC_Rg_175A_Es_3kT_Ens05kT.colvars.traj".
colvars: Saving collective variables state to "rest.colvars.state".
colvars: Synchronizing (emptying the buffer of) trajectory file "Run3_IC_Rg_175A_Es_3kT_Ens05kT.colvars.traj".
colvars: Saving collective variables state to "rest.colvars.state".
colvars: Synchronizing (emptying the buffer of) trajectory file "Run3_IC_Rg_175A_Es_3kT_Ens05kT.colvars.traj".
colvars: Saving collective variables state to "rest.colvars.state".
colvars: Synchronizing (emptying the buffer of) trajectory file "Run3_IC_Rg_175A_Es_3kT_Ens05kT.colvars.traj".
colvars: Saving collective variables state to "rest.colvars.state".
colvars: Synchronizing (emptying the buffer of) trajectory file "Run3_IC_Rg_175A_Es_3kT_Ens05kT.colvars.traj".
colvars: Saving collective variables state to "rest.colvars.state".
colvars: Synchronizing (emptying the buffer of) trajectory file "Run3_IC_Rg_175A_Es_3kT_Ens05kT.colvars.traj".
colvars: Saving collective variables state to "rest.colvars.state".
colvars: Synchronizing (emptying the buffer of) trajectory file "Run3_IC_Rg_175A_Es_3kT_Ens05kT.colvars.traj".
colvars: Saving collective variables state to "rest.colvars.state".
colvars: Synchronizing (emptying the buffer of) trajectory file "Run3_IC_Rg_175A_Es_3kT_Ens05kT.colvars.traj".
colvars: Saving collective variables state to "rest.colvars.state".
colvars: Synchronizing (emptying the buffer of) trajectory file "Run3_IC_Rg_175A_Es_3kT_Ens05kT.colvars.traj".
colvars: Saving collective variables state to "rest.colvars.state".
colvars: Synchronizing (emptying the buffer of) trajectory file "Run3_IC_Rg_175A_Es_3kT_Ens05kT.colvars.traj".
colvars: Saving collective variables state to "rest.colvars.state".
colvars: Synchronizing (emptying the buffer of) trajectory file "Run3_IC_Rg_175A_Es_3kT_Ens05kT.colvars.traj".
colvars: Saving collective variables state to "rest.colvars.state".
colvars: Synchronizing (emptying the buffer of) trajectory file "Run3_IC_Rg_175A_Es_3kT_Ens05kT.colvars.traj".
colvars: Saving collective variables state to "rest.colvars.state".
colvars: Synchronizing (emptying the buffer of) trajectory file "Run3_IC_Rg_175A_Es_3kT_Ens05kT.colvars.traj".
colvars: Saving collective variables state to "rest.colvars.state".
colvars: Synchronizing (emptying the buffer of) trajectory file "Run3_IC_Rg_175A_Es_3kT_Ens05kT.colvars.traj".
colvars: Saving collective variables state to "rest.colvars.state".
colvars: Synchronizing (emptying the buffer of) trajectory file "Run3_IC_Rg_175A_Es_3kT_Ens05kT.colvars.traj".
colvars: Saving collective variables state to "rest.colvars.state".
colvars: Synchronizing (emptying the buffer of) trajectory file "Run3_IC_Rg_175A_Es_3kT_Ens05kT.colvars.traj".
colvars: Saving collective variables state to "rest.colvars.state".
colvars: Synchronizing (emptying the buffer of) trajectory file "Run3_IC_Rg_175A_Es_3kT_Ens05kT.colvars.traj".
colvars: Saving collective variables state to "rest.colvars.state".
colvars: Synchronizing (emptying the buffer of) trajectory file "Run3_IC_Rg_175A_Es_3kT_Ens05kT.colvars.traj".
colvars: Saving collective variables state to "rest.colvars.state".
colvars: Synchronizing (emptying the buffer of) trajectory file "Run3_IC_Rg_175A_Es_3kT_Ens05kT.colvars.traj".
colvars: Saving collective variables state to "rest.colvars.state".
colvars: Synchronizing (emptying the buffer of) trajectory file "Run3_IC_Rg_175A_Es_3kT_Ens05kT.colvars.traj".
colvars: Saving collective variables state to "rest.colvars.state".
197000000   -3879.4242    450.45232    4663.8178    1529.0104    2800.8661    312.98544     5250 
colvars: Synchronizing (emptying the buffer of) trajectory file "Run3_IC_Rg_175A_Es_3kT_Ens05kT.colvars.traj".
colvars: Saving collective variables state to "rest.colvars.state".
colvars: Synchronizing (emptying the buffer of) trajectory file "Run3_IC_Rg_175A_Es_3kT_Ens05kT.colvars.traj".
colvars: Saving collective variables state to "rest.colvars.state".
colvars: Synchronizing (emptying the buffer of) trajectory file "Run3_IC_Rg_175A_Es_3kT_Ens05kT.colvars.traj".
colvars: Saving collective variables state to "rest.colvars.state".
colvars: Synchronizing (emptying the buffer of) trajectory file "Run3_IC_Rg_175A_Es_3kT_Ens05kT.colvars.traj".
colvars: Saving collective variables state to "rest.colvars.state".
colvars: Synchronizing (emptying the buffer of) trajectory file "Run3_IC_Rg_175A_Es_3kT_Ens05kT.colvars.traj".
colvars: Saving collective variables state to "rest.colvars.state".
colvars: Synchronizing (emptying the buffer of) trajectory file "Run3_IC_Rg_175A_Es_3kT_Ens05kT.colvars.traj".
colvars: Saving collective variables state to "rest.colvars.state".
colvars: Synchronizing (emptying the buffer of) trajectory file "Run3_IC_Rg_175A_Es_3kT_Ens05kT.colvars.traj".
colvars: Saving collective variables state to "rest.colvars.state".
colvars: Synchronizing (emptying the buffer of) trajectory file "Run3_IC_Rg_175A_Es_3kT_Ens05kT.colvars.traj".
colvars: Saving collective variables state to "rest.colvars.state".
colvars: Synchronizing (emptying the buffer of) trajectory file "Run3_IC_Rg_175A_Es_3kT_Ens05kT.colvars.traj".
colvars: Saving collective variables state to "rest.colvars.state".
colvars: Synchronizing (emptying the buffer of) trajectory file "Run3_IC_Rg_175A_Es_3kT_Ens05kT.colvars.traj".
colvars: Saving collective variables state to "rest.colvars.state".
colvars: Synchronizing (emptying the buffer of) trajectory file "Run3_IC_Rg_175A_Es_3kT_Ens05kT.colvars.traj".
colvars: Saving collective variables state to "rest.colvars.state".
colvars: Synchronizing (emptying the buffer of) trajectory file "Run3_IC_Rg_175A_Es_3kT_Ens05kT.colvars.traj".
colvars: Saving collective variables state to "rest.colvars.state".
colvars: Synchronizing (emptying the buffer of) trajectory file "Run3_IC_Rg_175A_Es_3kT_Ens05kT.colvars.traj".
colvars: Saving collective variables state to "rest.colvars.state".
colvars: Synchronizing (emptying the buffer of) trajectory file "Run3_IC_Rg_175A_Es_3kT_Ens05kT.colvars.traj".
colvars: Saving collective variables state to "rest.colvars.state".
colvars: Synchronizing (emptying the buffer of) trajectory file "Run3_IC_Rg_175A_Es_3kT_Ens05kT.colvars.traj".
colvars: Saving collective variables state to "rest.colvars.state".
colvars: Synchronizing (emptying the buffer of) trajectory file "Run3_IC_Rg_175A_Es_3kT_Ens05kT.colvars.traj".
colvars: Saving collective variables state to "rest.colvars.state".
colvars: Synchronizing (emptying the buffer of) trajectory file "Run3_IC_Rg_175A_Es_3kT_Ens05kT.colvars.traj".
colvars: Saving collective variables state to "rest.colvars.state".
colvars: Synchronizing (emptying the buffer of) trajectory file "Run3_IC_Rg_175A_Es_3kT_Ens05kT.colvars.traj".
colvars: Saving collective variables state to "rest.colvars.state".
colvars: Synchronizing (emptying the buffer of) trajectory file "Run3_IC_Rg_175A_Es_3kT_Ens05kT.colvars.traj".
colvars: Saving collective variables state to "rest.colvars.state".
colvars: Synchronizing (emptying the buffer of) trajectory file "Run3_IC_Rg_175A_Es_3kT_Ens05kT.colvars.traj".
colvars: Saving collective variables state to "rest.colvars.state".
198000000   -3783.3346     545.3651    4601.0212    1476.3744    2852.3254    308.77121     5264 
colvars: Synchronizing (emptying the buffer of) trajectory file "Run3_IC_Rg_175A_Es_3kT_Ens05kT.colvars.traj".
colvars: Saving collective variables state to "rest.colvars.state".
colvars: Synchronizing (emptying the buffer of) trajectory file "Run3_IC_Rg_175A_Es_3kT_Ens05kT.colvars.traj".
colvars: Saving collective variables state to "rest.colvars.state".
colvars: Synchronizing (emptying the buffer of) trajectory file "Run3_IC_Rg_175A_Es_3kT_Ens05kT.colvars.traj".
colvars: Saving collective variables state to "rest.colvars.state".
colvars: Synchronizing (emptying the buffer of) trajectory file "Run3_IC_Rg_175A_Es_3kT_Ens05kT.colvars.traj".
colvars: Saving collective variables state to "rest.colvars.state".
colvars: Synchronizing (emptying the buffer of) trajectory file "Run3_IC_Rg_175A_Es_3kT_Ens05kT.colvars.traj".
colvars: Saving collective variables state to "rest.colvars.state".
colvars: Synchronizing (emptying the buffer of) trajectory file "Run3_IC_Rg_175A_Es_3kT_Ens05kT.colvars.traj".
colvars: Saving collective variables state to "rest.colvars.state".
colvars: Synchronizing (emptying the buffer of) trajectory file "Run3_IC_Rg_175A_Es_3kT_Ens05kT.colvars.traj".
colvars: Saving collective variables state to "rest.colvars.state".
colvars: Synchronizing (emptying the buffer of) trajectory file "Run3_IC_Rg_175A_Es_3kT_Ens05kT.colvars.traj".
colvars: Saving collective variables state to "rest.colvars.state".
colvars: Synchronizing (emptying the buffer of) trajectory file "Run3_IC_Rg_175A_Es_3kT_Ens05kT.colvars.traj".
colvars: Saving collective variables state to "rest.colvars.state".
colvars: Synchronizing (emptying the buffer of) trajectory file "Run3_IC_Rg_175A_Es_3kT_Ens05kT.colvars.traj".
colvars: Saving collective variables state to "rest.colvars.state".
colvars: Synchronizing (emptying the buffer of) trajectory file "Run3_IC_Rg_175A_Es_3kT_Ens05kT.colvars.traj".
colvars: Saving collective variables state to "rest.colvars.state".
colvars: Synchronizing (emptying the buffer of) trajectory file "Run3_IC_Rg_175A_Es_3kT_Ens05kT.colvars.traj".
colvars: Saving collective variables state to "rest.colvars.state".
colvars: Synchronizing (emptying the buffer of) trajectory file "Run3_IC_Rg_175A_Es_3kT_Ens05kT.colvars.traj".
colvars: Saving collective variables state to "rest.colvars.state".
colvars: Synchronizing (emptying the buffer of) trajectory file "Run3_IC_Rg_175A_Es_3kT_Ens05kT.colvars.traj".
colvars: Saving collective variables state to "rest.colvars.state".
colvars: Synchronizing (emptying the buffer of) trajectory file "Run3_IC_Rg_175A_Es_3kT_Ens05kT.colvars.traj".
colvars: Saving collective variables state to "rest.colvars.state".
colvars: Synchronizing (emptying the buffer of) trajectory file "Run3_IC_Rg_175A_Es_3kT_Ens05kT.colvars.traj".
colvars: Saving collective variables state to "rest.colvars.state".
colvars: Synchronizing (emptying the buffer of) trajectory file "Run3_IC_Rg_175A_Es_3kT_Ens05kT.colvars.traj".
colvars: Saving collective variables state to "rest.colvars.state".
colvars: Synchronizing (emptying the buffer of) trajectory file "Run3_IC_Rg_175A_Es_3kT_Ens05kT.colvars.traj".
colvars: Saving collective variables state to "rest.colvars.state".
colvars: Synchronizing (emptying the buffer of) trajectory file "Run3_IC_Rg_175A_Es_3kT_Ens05kT.colvars.traj".
colvars: Saving collective variables state to "rest.colvars.state".
colvars: Synchronizing (emptying the buffer of) trajectory file "Run3_IC_Rg_175A_Es_3kT_Ens05kT.colvars.traj".
colvars: Saving collective variables state to "rest.colvars.state".
199000000    -3714.956    604.34455    4611.7737    1572.7007    2746.5999     309.4928     5252 
colvars: Synchronizing (emptying the buffer of) trajectory file "Run3_IC_Rg_175A_Es_3kT_Ens05kT.colvars.traj".
colvars: Saving collective variables state to "rest.colvars.state".
colvars: Synchronizing (emptying the buffer of) trajectory file "Run3_IC_Rg_175A_Es_3kT_Ens05kT.colvars.traj".
colvars: Saving collective variables state to "rest.colvars.state".
colvars: Synchronizing (emptying the buffer of) trajectory file "Run3_IC_Rg_175A_Es_3kT_Ens05kT.colvars.traj".
colvars: Saving collective variables state to "rest.colvars.state".
colvars: Synchronizing (emptying the buffer of) trajectory file "Run3_IC_Rg_175A_Es_3kT_Ens05kT.colvars.traj".
colvars: Saving collective variables state to "rest.colvars.state".
colvars: Synchronizing (emptying the buffer of) trajectory file "Run3_IC_Rg_175A_Es_3kT_Ens05kT.colvars.traj".
colvars: Saving collective variables state to "rest.colvars.state".
colvars: Synchronizing (emptying the buffer of) trajectory file "Run3_IC_Rg_175A_Es_3kT_Ens05kT.colvars.traj".
colvars: Saving collective variables state to "rest.colvars.state".
colvars: Synchronizing (emptying the buffer of) trajectory file "Run3_IC_Rg_175A_Es_3kT_Ens05kT.colvars.traj".
colvars: Saving collective variables state to "rest.colvars.state".
colvars: Synchronizing (emptying the buffer of) trajectory file "Run3_IC_Rg_175A_Es_3kT_Ens05kT.colvars.traj".
colvars: Saving collective variables state to "rest.colvars.state".
colvars: Synchronizing (emptying the buffer of) trajectory file "Run3_IC_Rg_175A_Es_3kT_Ens05kT.colvars.traj".
colvars: Saving collective variables state to "rest.colvars.state".
colvars: Synchronizing (emptying the buffer of) trajectory file "Run3_IC_Rg_175A_Es_3kT_Ens05kT.colvars.traj".
colvars: Saving collective variables state to "rest.colvars.state".
colvars: Synchronizing (emptying the buffer of) trajectory file "Run3_IC_Rg_175A_Es_3kT_Ens05kT.colvars.traj".
colvars: Saving collective variables state to "rest.colvars.state".
colvars: Synchronizing (emptying the buffer of) trajectory file "Run3_IC_Rg_175A_Es_3kT_Ens05kT.colvars.traj".
colvars: Saving collective variables state to "rest.colvars.state".
colvars: Synchronizing (emptying the buffer of) trajectory file "Run3_IC_Rg_175A_Es_3kT_Ens05kT.colvars.traj".
colvars: Saving collective variables state to "rest.colvars.state".
colvars: Synchronizing (emptying the buffer of) trajectory file "Run3_IC_Rg_175A_Es_3kT_Ens05kT.colvars.traj".
colvars: Saving collective variables state to "rest.colvars.state".
colvars: Synchronizing (emptying the buffer of) trajectory file "Run3_IC_Rg_175A_Es_3kT_Ens05kT.colvars.traj".
colvars: Saving collective variables state to "rest.colvars.state".
colvars: Synchronizing (emptying the buffer of) trajectory file "Run3_IC_Rg_175A_Es_3kT_Ens05kT.colvars.traj".
colvars: Saving collective variables state to "rest.colvars.state".
colvars: Synchronizing (emptying the buffer of) trajectory file "Run3_IC_Rg_175A_Es_3kT_Ens05kT.colvars.traj".
colvars: Saving collective variables state to "rest.colvars.state".
colvars: Synchronizing (emptying the buffer of) trajectory file "Run3_IC_Rg_175A_Es_3kT_Ens05kT.colvars.traj".
colvars: Saving collective variables state to "rest.colvars.state".
colvars: Synchronizing (emptying the buffer of) trajectory file "Run3_IC_Rg_175A_Es_3kT_Ens05kT.colvars.traj".
colvars: Saving collective variables state to "rest.colvars.state".
colvars: Synchronizing (emptying the buffer of) trajectory file "Run3_IC_Rg_175A_Es_3kT_Ens05kT.colvars.traj".
colvars: Saving collective variables state to "rest.colvars.state".
200000000    -3818.192    620.87334    4630.0749    1521.1812    2917.8841    310.72098     5258 
colvars: Saving collective variables state to "Run3_IC_Rg_175A_Es_3kT_Ens05kT.colvars.state".
Loop time of 74109 on 8 procs for 200000000 steps with 5000 atoms

Performance: 5829.255 ns/day, 0.004 hours/ns, 2698.729 timesteps/s
99.7% CPU use with 8 MPI tasks x no OpenMP threads

MPI task timing breakdown:
Section |  min time  |  avg time  |  max time  |%varavg| %total
---------------------------------------------------------------
Pair    | 22501      | 25156      | 27368      | 878.8 | 33.94
Bond    | 3884.6     | 3962       | 4028.9     |  58.7 |  5.35
Neigh   | 8731.4     | 8805       | 8850.3     |  36.5 | 11.88
Comm    | 10393      | 13553      | 17814      |1780.2 | 18.29
Output  | 1.1603     | 1.1605     | 1.1607     |   0.0 |  0.00
Modify  | 19596      | 20301      | 20914      | 271.9 | 27.39
Other   |            | 2331       |            |       |  3.15

Nlocal:    625 ave 652 max 611 min
Histogram: 3 2 0 0 1 0 0 0 1 1
Nghost:    788.5 ave 828 max 727 min
Histogram: 1 0 0 1 0 2 0 2 0 2
Neighs:    12631.6 ave 14952 max 11114 min
Histogram: 1 1 2 1 1 0 0 1 0 1

Total # of neighbors = 101053
Ave neighs/atom = 20.2106
Ave special neighs/atom = 7.3528
Neighbor list builds = 10488045
Dangerous builds = 0
System init for write_restart ...
colvars: Resetting the Collective Variables module.

Please see the log.cite file for references relevant to this simulation

Total wall time: 20:35:11
