LAMMPS data file via write_data, version 5 Jun 2019, timestep = 300000000

5000 atoms
4 atom types
5295 bonds
3 bond types
4600 angles
2 angle types

-2.5000000000000000e+02 2.5000000000000000e+02 xlo xhi
-2.5000000000000000e+02 2.5000000000000000e+02 ylo yhi
-2.5000000000000000e+02 2.5000000000000000e+02 zlo zhi

Masses

1 1000
2 1000
3 1000
4 1000

Pair Coeffs # lj/cut

1 0.3 10
2 0.3 10
3 0.3 10
4 0.3 10

Bond Coeffs # harmonic

1 3 10
2 3 10
3 3 11.22

Angle Coeffs # cosine

1 2
2 2

Atoms # full

3051 123 3 0.0000000000000000e+00 -5.3729633068208180e+01 2.0469645291872243e+00 -1.7362824559136737e+02 0 0 0
1400 56 1 0.0000000000000000e+00 -4.9768818807799114e+01 1.2346008896803010e+01 -1.7584758465461644e+02 0 0 0
2239 90 2 0.0000000000000000e+00 -4.0756522203724352e+01 4.8371727190306038e+00 -1.7058280584288562e+02 0 0 0
2240 90 2 0.0000000000000000e+00 -3.1207228986231879e+01 6.7629102726611574e+00 -1.7299596318262269e+02 0 0 0
4781 192 4 0.0000000000000000e+00 -3.2834497386223780e+00 -4.9671721782119882e+01 -1.5795163800478147e+02 0 0 0
4461 179 4 0.0000000000000000e+00 1.4651742259200531e+00 -2.7674410294676445e+01 -1.5755884405389938e+02 0 0 0
3058 123 4 0.0000000000000000e+00 -3.4690983771380139e+01 -1.5428887944558038e+01 -1.5611550531391694e+02 0 0 0
2244 90 1 0.0000000000000000e+00 -1.2633286165693464e+01 -1.2551743563561066e+01 -1.6316220018193903e+02 0 0 0
3057 123 3 0.0000000000000000e+00 -2.5075022175346223e+01 -1.8107727939987441e+01 -1.5467767965540077e+02 0 0 0
2245 90 2 0.0000000000000000e+00 -8.2166716028526423e+00 -2.0007353713235418e+01 -1.5880007247699561e+02 0 0 0
4462 179 4 0.0000000000000000e+00 5.4304177690016031e-01 -2.0296374656068750e+01 -1.6469294690928322e+02 0 0 0
4463 179 3 0.0000000000000000e+00 -1.2208077064103804e+00 -1.1965260010540504e+01 -1.6000907649925026e+02 0 0 0
3052 123 4 0.0000000000000000e+00 -5.0026786575005090e+01 -4.4338029197304687e+00 -1.6653021525970433e+02 0 0 0
3053 123 4 0.0000000000000000e+00 -4.7482118684116280e+01 -6.7891002791224748e+00 -1.5708432479981565e+02 0 0 0
2242 90 2 0.0000000000000000e+00 -2.6947273028473717e+01 -9.3173520825006584e-01 -1.6192939448214793e+02 0 0 0
3054 123 4 0.0000000000000000e+00 -3.7784872382092949e+01 -5.2736236195351474e+00 -1.5439148763810371e+02 0 0 0
2243 90 2 0.0000000000000000e+00 -1.8985443103177218e+01 -6.2742384240235660e+00 -1.5932434442227137e+02 0 0 0
4464 179 4 0.0000000000000000e+00 6.0338151965649733e-01 -1.5661685093009658e+00 -1.5880971214988250e+02 0 0 0
1399 56 2 0.0000000000000000e+00 -5.5190377305027198e+01 1.2751896972182797e+01 -1.6723736148733528e+02 0 0 0
2237 90 2 0.0000000000000000e+00 -5.1495873654550230e+01 5.3850646512932485e+00 -1.5453438462775972e+02 0 0 0
2238 90 1 0.0000000000000000e+00 -4.6871382092306128e+01 7.7180536291124655e+00 -1.6320581150946529e+02 0 0 0
3000 120 3 0.0000000000000000e+00 -5.0430773249621716e+01 1.5760646459076366e+01 -1.5585976799364218e+02 0 0 0
2150 86 1 0.0000000000000000e+00 -3.0766905906409448e+01 1.3358995413100754e+01 -1.6108691741983395e+02 0 0 0
2241 90 2 0.0000000000000000e+00 -2.3192786307947525e+01 6.9254533000112621e+00 -1.6655913302900515e+02 0 0 0
4465 179 4 0.0000000000000000e+00 -4.4696881297092279e+00 7.1078875225270135e+00 -1.5896366002855288e+02 0 0 0
4466 179 4 0.0000000000000000e+00 -1.0028511503543463e+01 1.5542322369980527e+01 -1.5661001107264730e+02 0 0 0
4779 192 4 0.0000000000000000e+00 -1.5925308252371252e+01 -5.1374584955035822e+01 -1.4395833086811240e+02 0 0 0
4780 192 4 0.0000000000000000e+00 -9.4351064135670661e+00 -5.3505829618111349e+01 -1.5088762866024240e+02 0 0 0
4459 179 4 0.0000000000000000e+00 -1.9282673407258781e+00 -4.1205134907078182e+01 -1.4304893135377901e+02 0 0 0
273 11 2 0.0000000000000000e+00 -4.1509875264143012e+01 -3.5012144430872311e+01 -1.4073930617885298e+02 0 0 0
401 17 1 0.0000000000000000e+00 -1.9955741422409648e+01 -2.6970065307563516e+01 -1.5074125356151777e+02 0 0 0
2247 90 2 0.0000000000000000e+00 -1.0711860309276604e+01 -2.7804491372066703e+01 -1.4221285053330962e+02 0 0 0
4460 179 4 0.0000000000000000e+00 -3.2660483597205420e-01 -3.3837416984135544e+01 -1.4960187209489436e+02 0 0 0
3059 123 4 0.0000000000000000e+00 -4.3977186329821741e+01 -1.6972071993936328e+01 -1.5153522382985355e+02 0 0 0
3060 123 4 0.0000000000000000e+00 -5.2705943115463185e+01 -1.7873197211305605e+01 -1.4735154494888187e+02 0 0 0
3410 137 4 0.0000000000000000e+00 -3.8710446262490350e+01 -1.6870514231243302e+01 -1.4290856907555664e+02 0 0 0
3409 137 4 0.0000000000000000e+00 -2.8702011635138415e+01 -1.5949724503865806e+01 -1.4061862110566952e+02 0 0 0
402 17 2 0.0000000000000000e+00 -1.5778318921769184e+01 -1.9191602676665710e+01 -1.4546495901336363e+02 0 0 0
2246 90 2 0.0000000000000000e+00 -6.8384282719719849e+00 -2.1686917388109634e+01 -1.4922870141636332e+02 0 0 0
3405 137 4 0.0000000000000000e+00 1.8728089514022461e+00 -1.6357520923847346e+01 -1.4990516313635734e+02 0 0 0
2235 90 2 0.0000000000000000e+00 -6.2498656507377966e+01 -6.2447673505295977e+00 -1.4415119415683571e+02 0 0 0
2236 90 2 0.0000000000000000e+00 -5.4493997349631726e+01 -3.4808430880864045e+00 -1.4982701403835389e+02 0 0 0
3411 137 4 0.0000000000000000e+00 -4.4126087544405912e+01 -8.6983161270944862e+00 -1.4427368739989186e+02 0 0 0
3055 123 4 0.0000000000000000e+00 -3.1089230041515094e+01 -7.7674201752365057e+00 -1.4729439229504987e+02 0 0 0
3056 123 4 0.0000000000000000e+00 -2.1884772310312350e+01 -1.1615210757666420e+01 -1.4769597583100665e+02 0 0 0
1057 43 1 0.0000000000000000e+00 -2.1548421639834860e+01 9.6945869935696849e-01 -1.4582014060321745e+02 0 0 0
1056 43 2 0.0000000000000000e+00 -1.5627610816166692e+01 -4.8837128751085794e+00 -1.4049433247175489e+02 0 0 0
403 17 2 0.0000000000000000e+00 -1.1693580903793505e+01 -1.1467225350503428e+01 -1.5077389172859182e+02 0 0 0
404 17 2 0.0000000000000000e+00 -8.7623131826261780e+00 -2.0497580958853328e+00 -1.4954637890193794e+02 0 0 0
2231 90 2 0.0000000000000000e+00 -8.5505970686002129e+01 1.5406184249007994e+01 -1.4284108680138519e+02 0 0 0
2999 120 4 0.0000000000000000e+00 -4.2107575468456382e+01 1.2723151794411487e+01 -1.5131533098336399e+02 0 0 0
2998 120 4 0.0000000000000000e+00 -3.8110240493976242e+01 6.6179941532422273e+00 -1.4417821928246158e+02 0 0 0
1058 43 2 0.0000000000000000e+00 -2.9265017075663806e+01 6.7396632718007101e+00 -1.4865844996206565e+02 0 0 0
665 27 2 0.0000000000000000e+00 -1.3493827063111523e+01 1.2629984228497150e+01 -1.4289114538335122e+02 0 0 0
1059 43 2 0.0000000000000000e+00 -2.3111088785962206e+01 1.4622230824645722e+01 -1.4763898894724028e+02 0 0 0
405 17 2 0.0000000000000000e+00 -1.8526006808614015e+00 5.2263000216390640e+00 -1.4889719582201795e+02 0 0 0
4151 167 3 0.0000000000000000e+00 -3.1986028135782096e+01 -8.2229474631928142e+01 -1.2709335846206173e+02 0 0 0
1845 74 2 0.0000000000000000e+00 -2.0015240817544445e+01 -7.3724776761202492e+01 -1.3069936657510357e+02 0 0 0
1828 74 2 0.0000000000000000e+00 -1.1112250615750465e+00 -6.1678826170265516e+01 -1.2959167830812052e+02 0 0 0
3065 123 4 0.0000000000000000e+00 -3.9856038983137850e+01 -4.0138823419288300e+01 -1.2697910586951933e+02 0 0 0
3066 123 4 0.0000000000000000e+00 -3.9347018896353191e+01 -4.9931332987564232e+01 -1.2892961745017814e+02 0 0 0
271 11 2 0.0000000000000000e+00 -2.9127304374009675e+01 -4.4219615949161998e+01 -1.2907464841327860e+02 0 0 0
272 11 2 0.0000000000000000e+00 -3.3870931039461311e+01 -4.1072897532880610e+01 -1.3725030516075762e+02 0 0 0
4778 192 4 0.0000000000000000e+00 -2.0785463016385997e+01 -4.7515965398169371e+01 -1.3623880012786259e+02 0 0 0
4777 192 4 0.0000000000000000e+00 -1.5496711481869751e+01 -4.5791435070201359e+01 -1.2784675047996816e+02 0 0 0
1983 80 2 0.0000000000000000e+00 -7.7522063220052885e+01 -3.1592931087668969e+01 -1.2725959280727393e+02 0 0 0
274 11 2 0.0000000000000000e+00 -4.9802485212598448e+01 -3.1394632561250102e+01 -1.3720897562187253e+02 0 0 0
2249 90 2 0.0000000000000000e+00 -2.8012340937547780e+01 -2.8731406982428602e+01 -1.3886142878000251e+02 0 0 0
3626 146 3 0.0000000000000000e+00 -2.5616107924118108e+01 -2.7577403202794649e+01 -1.2844035127960595e+02 0 0 0
2248 90 2 0.0000000000000000e+00 -1.9152116385834137e+01 -3.2228589952370399e+01 -1.3749942810382811e+02 0 0 0
4458 179 4 0.0000000000000000e+00 -9.7534802429669600e+00 -3.9790407589357237e+01 -1.3682799047236665e+02 0 0 0
4457 179 3 0.0000000000000000e+00 -1.0747703650080382e+01 -3.3168181262041564e+01 -1.2918513281725811e+02 0 0 0
2158 87 2 0.0000000000000000e+00 2.2051096904007914e+00 -3.5499996687700914e+01 -1.2790342538137283e+02 0 0 0
1979 80 2 0.0000000000000000e+00 -9.7499003840617320e+01 -1.3155146341664823e+01 -1.2677744769305853e+02 0 0 0
275 11 1 0.0000000000000000e+00 -5.2754013380936904e+01 -2.5273619443638985e+01 -1.2965349493312027e+02 0 0 0
3061 123 4 0.0000000000000000e+00 -5.3206305268687665e+01 -1.3789689809260269e+01 -1.3827679571350063e+02 0 0 0
3062 123 4 0.0000000000000000e+00 -4.9566078757141092e+01 -1.3346014895682705e+01 -1.2853244065840926e+02 0 0 0
2250 90 1 0.0000000000000000e+00 -3.3707540480474933e+01 -2.1775556949321874e+01 -1.3367587500435590e+02 0 0 0
1054 43 2 0.0000000000000000e+00 -3.0914328886430713e+01 -1.2278419806433531e+01 -1.3103038299607442e+02 0 0 0
3408 137 4 0.0000000000000000e+00 -2.1424136297549584e+01 -1.5615763102352540e+01 -1.3305211902766467e+02 0 0 0
3406 137 4 0.0000000000000000e+00 -2.5593257703285310e+00 -1.5475269468365942e+01 -1.4020549288022829e+02 0 0 0
3407 137 3 0.0000000000000000e+00 -1.1521871315871220e+01 -1.5250690765472600e+01 -1.3576820832268999e+02 0 0 0
1978 80 2 0.0000000000000000e+00 -1.0647226896396182e+02 -1.1041674138885302e+01 -1.3011070946015499e+02 0 0 0
2234 90 2 0.0000000000000000e+00 -7.0743573376285340e+01 -5.3690654439858294e+00 -1.3887703239579255e+02 0 0 0
2233 90 2 0.0000000000000000e+00 -7.7867530868338193e+01 7.4956362584962788e-01 -1.3578910891452500e+02 0 0 0
3413 137 3 0.0000000000000000e+00 -5.6214989275669978e+01 -3.2197511663778640e+00 -1.3164735789202865e+02 0 0 0
3412 137 4 0.0000000000000000e+00 -4.8562920342222185e+01 -2.9847516823668676e+00 -1.3805556201427555e+02 0 0 0
2019 81 1 0.0000000000000000e+00 -4.5912249860645439e+01 -2.1952297753931092e+00 -1.2779111400322853e+02 0 0 0
2996 120 4 0.0000000000000000e+00 -3.0418299345985872e+01 1.9660251865014158e+00 -1.2981661254429449e+02 0 0 0
2997 120 4 0.0000000000000000e+00 -3.0631079356636235e+01 1.6100922425329094e+00 -1.3958860725156615e+02 0 0 0
1055 43 2 0.0000000000000000e+00 -2.5074417188098820e+01 -6.5127598855028532e+00 -1.3771090147206294e+02 0 0 0
3181 128 4 0.0000000000000000e+00 -1.9142417651836119e+01 5.7625033707941198e-01 -1.2863975811394241e+02 0 0 0
663 27 1 0.0000000000000000e+00 -4.9121548595247484e+00 -4.1958885011766975e+00 -1.3638844828574827e+02 0 0 0
662 27 2 0.0000000000000000e+00 4.1277978856568520e-01 -8.8657201116296385e+00 -1.2924658143572492e+02 0 0 0
2232 90 1 0.0000000000000000e+00 -8.4289026181178514e+01 8.3914392909431736e+00 -1.3531398624241402e+02 0 0 0
2901 117 3 0.0000000000000000e+00 -9.3326743469115655e+01 1.5111859724019315e+01 -1.3446231253847631e+02 0 0 0
3414 137 4 0.0000000000000000e+00 -5.9900463889064525e+01 4.5401528156879252e+00 -1.2748474692110577e+02 0 0 0
2021 81 2 0.0000000000000000e+00 -5.2824291717250922e+01 1.2134176394863749e+01 -1.3848768098956000e+02 0 0 0
2020 81 2 0.0000000000000000e+00 -4.6936861878051516e+01 5.8403544489304844e+00 -1.3328710366974744e+02 0 0 0
3183 128 4 0.0000000000000000e+00 -2.9193785843703449e+01 1.0544344853473090e+01 -1.3733235524086996e+02 0 0 0
3184 128 4 0.0000000000000000e+00 -3.8076825463885129e+01 1.0413865664880651e+01 -1.3349976065687710e+02 0 0 0
3182 128 3 0.0000000000000000e+00 -2.0359151980448253e+01 6.8545782253806875e+00 -1.3636594658334204e+02 0 0 0
659 27 2 0.0000000000000000e+00 -1.3833857082755518e+01 1.5833993454982153e+01 -1.2879706346922214e+02 0 0 0
664 27 2 0.0000000000000000e+00 -7.7359751240293928e+00 5.5738133851393110e+00 -1.3822765603861723e+02 0 0 0
4122 165 4 0.0000000000000000e+00 1.7657182387866441e-01 1.0362872503134843e+01 -1.3249376138268747e+02 0 0 0
4153 167 4 0.0000000000000000e+00 -4.3089292529877497e+01 -8.2170140388518291e+01 -1.1298333136969306e+02 0 0 0
1844 74 1 0.0000000000000000e+00 -2.8783835863313882e+01 -7.1356005029379702e+01 -1.2594718045738706e+02 0 0 0
4152 167 4 0.0000000000000000e+00 -3.4665811182537063e+01 -8.0008125369590545e+01 -1.1734117113397726e+02 0 0 0
1843 74 2 0.0000000000000000e+00 -3.0101166310094964e+01 -6.9167150001093916e+01 -1.1594575226460859e+02 0 0 0
1846 74 2 0.0000000000000000e+00 -1.7385059922317186e+01 -7.7385582913771287e+01 -1.2129594391758032e+02 0 0 0
1847 74 2 0.0000000000000000e+00 -1.0433411067641096e+01 -7.2952097941659275e+01 -1.1601007447261297e+02 0 0 0
1848 74 2 0.0000000000000000e+00 -9.4366942863230352e-01 -7.2481409038458168e+01 -1.1509885842174502e+02 0 0 0
1986 80 2 0.0000000000000000e+00 -8.2777878785806891e+01 -5.7849352669095602e+01 -1.1546171165959072e+02 0 0 0
3070 123 4 0.0000000000000000e+00 -7.1697910991755123e+01 -5.5124815919725037e+01 -1.1428805765079564e+02 0 0 0
3069 123 3 0.0000000000000000e+00 -6.1741264206720892e+01 -5.8291314107750416e+01 -1.1320933897166631e+02 0 0 0
3068 123 4 0.0000000000000000e+00 -5.1844856936582502e+01 -5.9608780768610465e+01 -1.1642766902827358e+02 0 0 0
580 24 2 0.0000000000000000e+00 -4.4596538539372560e+01 -6.7507469953620486e+01 -1.1807722808215020e+02 0 0 0
579 24 2 0.0000000000000000e+00 -3.9392097453296230e+01 -5.9504076200769113e+01 -1.2108481651510992e+02 0 0 0
1842 74 2 0.0000000000000000e+00 -2.7667367468295005e+01 -5.9552824759113740e+01 -1.1381901820057436e+02 0 0 0
269 11 1 0.0000000000000000e+00 -2.0647232368029051e+01 -5.8708456320808587e+01 -1.2121664454598418e+02 0 0 0
268 11 2 0.0000000000000000e+00 -1.6844085550053137e+01 -6.2807248691043739e+01 -1.1335814554625314e+02 0 0 0
1829 74 2 0.0000000000000000e+00 -4.5764171119803585e+00 -5.5304088128841862e+01 -1.2169831866942893e+02 0 0 0
1985 80 2 0.0000000000000000e+00 -8.3908956726086913e+01 -4.9009448399735760e+01 -1.2123190175235729e+02 0 0 0
1984 80 2 0.0000000000000000e+00 -7.9215682706497546e+01 -4.0867709874317214e+01 -1.2487967136148808e+02 0 0 0
3067 123 4 0.0000000000000000e+00 -4.6676388420097801e+01 -5.2585330724606102e+01 -1.2283821776309148e+02 0 0 0
578 24 2 0.0000000000000000e+00 -3.4434453773774507e+01 -5.0725260262531322e+01 -1.1965153454944847e+02 0 0 0
577 24 2 0.0000000000000000e+00 -2.8320493129430279e+01 -4.2338739261502127e+01 -1.1776326332283830e+02 0 0 0
270 11 2 0.0000000000000000e+00 -2.2613431077456685e+01 -4.9012168643659649e+01 -1.2223116874736989e+02 0 0 0
4776 192 3 0.0000000000000000e+00 -1.3735648117041894e+01 -4.9569683946408958e+01 -1.1839273833940555e+02 0 0 0
1830 74 2 0.0000000000000000e+00 -1.3515444036107065e+00 -4.6702768273870227e+01 -1.1823755715774907e+02 0 0 0
3073 123 4 0.0000000000000000e+00 -8.0871359416858411e+01 -2.8683980827638585e+01 -1.1404946389625535e+02 0 0 0
3072 123 4 0.0000000000000000e+00 -7.7468920923962415e+01 -3.7910770032171527e+01 -1.1496577512474222e+02 0 0 0
3064 123 4 0.0000000000000000e+00 -4.2543655545884576e+01 -3.0580480506088058e+01 -1.2482348422827084e+02 0 0 0
4454 179 4 0.0000000000000000e+00 -3.3798298978128258e+01 -2.6334958400016401e+01 -1.1299381326702424e+02 0 0 0
4455 179 4 0.0000000000000000e+00 -2.3986920060124781e+01 -2.8163734287628561e+01 -1.1523561511409355e+02 0 0 0
4456 179 4 0.0000000000000000e+00 -1.5467007730748165e+01 -3.0979884512627372e+01 -1.2055960581632627e+02 0 0 0
1831 74 2 0.0000000000000000e+00 -7.8774510173332510e+00 -3.9114082750940518e+01 -1.2126674882524803e+02 0 0 0
1832 74 1 0.0000000000000000e+00 -5.5290243511470587e+00 -2.9770652756275570e+01 -1.1930270587630754e+02 0 0 0
1980 80 2 0.0000000000000000e+00 -8.7765102481793292e+01 -1.3693548115657247e+01 -1.2365510565474509e+02 0 0 0
1982 80 1 0.0000000000000000e+00 -7.5277019816852302e+01 -2.1975270114421310e+01 -1.2270991019744990e+02 0 0 0
1981 80 2 0.0000000000000000e+00 -7.8014534978547047e+01 -1.2123394659390353e+01 -1.2231701680233058e+02 0 0 0
3075 123 3 0.0000000000000000e+00 -6.9354415423172640e+01 -1.6028885473454121e+01 -1.1538319038426879e+02 0 0 0
3063 123 3 0.0000000000000000e+00 -4.2782961852426624e+01 -2.1109496755214519e+01 -1.2655020890931360e+02 0 0 0
3627 146 4 0.0000000000000000e+00 -3.2582066617804387e+01 -2.1691909096639264e+01 -1.2433336007189619e+02 0 0 0
3628 146 4 0.0000000000000000e+00 -3.3688848416209588e+01 -1.6462541462688463e+01 -1.1598341503211748e+02 0 0 0
3179 128 4 0.0000000000000000e+00 -1.6530808551896339e+01 -1.4481884799449945e+01 -1.1748349608212372e+02 0 0 0
2159 87 2 0.0000000000000000e+00 3.9595225500884296e-01 -2.5828673818967225e+01 -1.2596672078782876e+02 0 0 0
2160 87 2 0.0000000000000000e+00 -6.8532373064227174e+00 -1.8244898641261219e+01 -1.2522985232716231e+02 0 0 0
1977 80 2 0.0000000000000000e+00 -1.1381260791740408e+02 -6.4185065984580154e+00 -1.2463541173130196e+02 0 0 0
1976 80 1 0.0000000000000000e+00 -1.2001360235915168e+02 -5.1998583038054864e+00 -1.1676714185509373e+02 0 0 0
2064 83 2 0.0000000000000000e+00 -9.2695517590781179e+01 -2.1462579356693370e+00 -1.1701195333279013e+02 0 0 0
2065 83 2 0.0000000000000000e+00 -8.3601044017031441e+01 -4.4419841135870755e+00 -1.1987405227516081e+02 0 0 0
2066 83 2 0.0000000000000000e+00 -7.4007175310454656e+01 -2.7163240578153403e+00 -1.1787293907270727e+02 0 0 0
2018 81 2 0.0000000000000000e+00 -5.1222070129986740e+01 -4.7858161127687415e+00 -1.1955193786111869e+02 0 0 0
1052 43 2 0.0000000000000000e+00 -3.7095311372314953e+01 -1.1246413664664039e+00 -1.1571697214439412e+02 0 0 0
1053 43 2 0.0000000000000000e+00 -3.2601356671773686e+01 -7.3773236121359194e+00 -1.2281531372689460e+02 0 0 0
2995 120 4 0.0000000000000000e+00 -2.8133476297885988e+01 1.2787389883160456e+00 -1.1941354440070813e+02 0 0 0
3180 128 4 0.0000000000000000e+00 -1.9001741124484074e+01 -8.7184959932438240e+00 -1.2560000156307773e+02 0 0 0
2162 87 2 0.0000000000000000e+00 -1.2248312195293698e+01 -4.1582981644505318e-01 -1.1819645731137248e+02 0 0 0
661 27 2 0.0000000000000000e+00 -4.0206833988613573e+00 -1.2382872274588663e-01 -1.2544530885419276e+02 0 0 0
2161 87 2 0.0000000000000000e+00 -7.6761285909977142e+00 -8.7917853123573977e+00 -1.2269051208935863e+02 0 0 0
996 40 2 0.0000000000000000e+00 1.8949169926309113e+00 -2.9076266779808807e-01 -1.1714923525276842e+02 0 0 0
4749 190 4 0.0000000000000000e+00 -1.0815637199609002e+02 4.5690755653687614e+00 -1.2045225934518280e+02 0 0 0
2009 81 2 0.0000000000000000e+00 -8.8865088843832282e+01 1.1955498068548074e+01 -1.1931110542994870e+02 0 0 0
2010 81 2 0.0000000000000000e+00 -7.9807779806871196e+01 8.3402153126234229e+00 -1.1721343051118019e+02 0 0 0
3415 137 4 0.0000000000000000e+00 -6.5173813554439377e+01 4.2376726142818137e+00 -1.1903546278036612e+02 0 0 0
4274 171 4 0.0000000000000000e+00 -2.9377049709399163e+01 1.2001493493092710e+01 -1.2341202034259233e+02 0 0 0
4273 171 4 0.0000000000000000e+00 -2.0530734748691550e+01 9.0542834650658950e+00 -1.2036560617613047e+02 0 0 0
660 27 2 0.0000000000000000e+00 -1.0169396260077313e+01 7.0979034453656302e+00 -1.2647199874257683e+02 0 0 0
4272 171 4 0.0000000000000000e+00 -1.1517254870253346e+01 1.3174708972887734e+01 -1.1818443693005183e+02 0 0 0
4123 165 4 0.0000000000000000e+00 2.4579586000287518e-01 1.0449377408466615e+01 -1.2240374183878625e+02 0 0 0
4154 167 4 0.0000000000000000e+00 -5.2540613416315573e+01 -8.1967292150806429e+01 -1.0895597658991456e+02 0 0 0
264 11 2 0.0000000000000000e+00 -6.0840832073611741e+00 -8.8503736658002097e+01 -1.0585180005507681e+02 0 0 0
4155 167 4 0.0000000000000000e+00 -6.1609491233806764e+01 -7.9404487525100237e+01 -1.0474708752721718e+02 0 0 0
1989 80 2 0.0000000000000000e+00 -6.5057238669671989e+01 -6.8326998400417821e+01 -1.0114703055444996e+02 0 0 0
581 24 2 0.0000000000000000e+00 -5.0878105686556310e+01 -7.1208605282677482e+01 -1.1086015403913763e+02 0 0 0
1665 67 2 0.0000000000000000e+00 -3.3510980707415449e+01 -7.6040721491452302e+01 -1.0788300040145110e+02 0 0 0
266 11 2 0.0000000000000000e+00 -1.8013315327263438e+01 -7.4068656231137311e+01 -1.0931179210036157e+02 0 0 0
265 11 2 0.0000000000000000e+00 -1.2483874414447600e+01 -8.0860012778001646e+01 -1.0545331718728680e+02 0 0 0
1165 47 2 0.0000000000000000e+00 -1.4933534653610006e+00 -7.9915810915340728e+01 -1.0754937369117376e+02 0 0 0
1166 47 2 0.0000000000000000e+00 -5.4035927498952709e+00 -7.1291870132647247e+01 -1.0427317579666583e+02 0 0 0
1987 80 2 0.0000000000000000e+00 -8.2962575952323249e+01 -6.1651783865679597e+01 -1.0592291141209060e+02 0 0 0
1988 80 1 0.0000000000000000e+00 -7.4129991237585926e+01 -6.3645998060639890e+01 -1.0263937221212981e+02 0 0 0
582 24 1 0.0000000000000000e+00 -5.7112597001653050e+01 -6.4905408032807102e+01 -1.0540994457941107e+02 0 0 0
583 24 2 0.0000000000000000e+00 -6.0045816031068270e+01 -5.5542998386070053e+01 -1.0175446509436506e+02 0 0 0
3998 160 4 0.0000000000000000e+00 -4.3841982369009955e+01 -6.2798957249634526e+01 -9.9615438657127712e+01 0 0 0
3999 160 4 0.0000000000000000e+00 -4.1631398845353509e+01 -5.4992910567824033e+01 -1.0558436671064541e+02 0 0 0
1664 67 2 0.0000000000000000e+00 -3.6092069298891253e+01 -6.6204801279172443e+01 -1.0661964488196180e+02 0 0 0
1663 67 1 0.0000000000000000e+00 -3.2764394133579941e+01 -5.7989335701945620e+01 -1.0210597252901931e+02 0 0 0
267 11 2 0.0000000000000000e+00 -2.2166115944637564e+01 -6.5855653760380548e+01 -1.0485406398037237e+02 0 0 0
1849 74 2 0.0000000000000000e+00 -6.2800460200531907e+00 -6.4977656063228309e+01 -1.1082398771565916e+02 0 0 0
1850 74 1 0.0000000000000000e+00 -7.8184091531912134e+00 -5.5336761785813735e+01 -1.1059268061710210e+02 0 0 0
3174 127 4 0.0000000000000000e+00 -9.3953280860677111e+01 -4.3715521389171919e+01 -1.1296526221509849e+02 0 0 0
3175 127 3 0.0000000000000000e+00 -9.0109489550772423e+01 -4.7047842540275759e+01 -1.0389756866069848e+02 0 0 0
2387 96 2 0.0000000000000000e+00 -8.0373942711829599e+01 -4.6453425111647036e+01 -1.0051641960629688e+02 0 0 0
3071 123 4 0.0000000000000000e+00 -7.8238628671732101e+01 -4.7160055019293942e+01 -1.1189670328797808e+02 0 0 0
585 24 2 0.0000000000000000e+00 -7.0828755092636612e+01 -3.9915166055566090e+01 -1.0477145896555425e+02 0 0 0
584 24 2 0.0000000000000000e+00 -6.5339981192766984e+01 -4.8094712064774981e+01 -1.0654431331216907e+02 0 0 0
4000 160 3 0.0000000000000000e+00 -3.4125335228799500e+01 -4.8423648099858603e+01 -1.0872247669883264e+02 0 0 0
1841 74 2 0.0000000000000000e+00 -2.3238011009610148e+01 -5.1837989029747483e+01 -1.0912612883290005e+02 0 0 0
1840 74 2 0.0000000000000000e+00 -1.5209942456514060e+01 -4.6242509587714927e+01 -1.0624704869186556e+02 0 0 0
576 24 1 0.0000000000000000e+00 -2.5349358217357679e+01 -4.1090106756077304e+01 -1.0899950765754974e+02 0 0 0
1839 74 2 0.0000000000000000e+00 -6.6735999435276874e+00 -4.3045245434034740e+01 -1.0191608832312663e+02 0 0 0
3173 127 4 0.0000000000000000e+00 -8.9787646390976974e+01 -3.4903507727812169e+01 -1.1196788226451000e+02 0 0 0
3172 127 4 0.0000000000000000e+00 -8.5807599878642492e+01 -2.9603917925049107e+01 -1.0520706989069421e+02 0 0 0
4453 179 4 0.0000000000000000e+00 -4.1568085326769541e+01 -3.1502113157509644e+01 -1.0840857064761609e+02 0 0 0
3176 128 3 0.0000000000000000e+00 -1.6460797944855702e+01 -3.4037521207635649e+01 -1.0927172289486992e+02 0 0 0
3177 128 4 0.0000000000000000e+00 -1.4183349161942710e+01 -2.6825368301869233e+01 -1.0261528898341020e+02 0 0 0
1833 74 2 0.0000000000000000e+00 -6.9716132625416294e-01 -2.7721390961706241e+01 -1.1058872055360652e+02 0 0 0
2062 83 2 0.0000000000000000e+00 -9.5258700722788944e+01 -1.3799043401895281e+01 -1.0296544154869085e+02 0 0 0
3074 123 4 0.0000000000000000e+00 -7.7113178015908829e+01 -1.9738232878439408e+01 -1.1043287378237164e+02 0 0 0
3155 127 4 0.0000000000000000e+00 -6.7732920799343560e+01 -1.1974259262093302e+01 -1.0164227858489059e+02 0 0 0
4452 179 4 0.0000000000000000e+00 -4.6604844287117182e+01 -2.3053808583479512e+01 -1.0900661501723086e+02 0 0 0
3629 146 4 0.0000000000000000e+00 -4.2160414603955594e+01 -1.3342057659109079e+01 -1.1094815347137713e+02 0 0 0
4451 179 3 0.0000000000000000e+00 -5.0289228119737686e+01 -1.6569248080038591e+01 -1.0215035352323130e+02 0 0 0
2166 87 2 0.0000000000000000e+00 -3.1197761098450403e+01 -1.7220062226999804e+01 -1.0570520211361105e+02 0 0 0
2167 87 2 0.0000000000000000e+00 -3.7934591619667309e+01 -2.3525258149700459e+01 -1.0249122235102818e+02 0 0 0
3178 128 4 0.0000000000000000e+00 -1.8197715817094075e+01 -2.0440627131076187e+01 -1.0974364911892556e+02 0 0 0
4880 196 4 0.0000000000000000e+00 -2.3510050850793736e+01 -1.5104729714818170e+01 -9.9365098752628100e+01 0 0 0
938 38 1 0.0000000000000000e+00 -3.3033546516758666e-01 -1.6570746463696434e+01 -1.0669903753731695e+02 0 0 0
4750 190 3 0.0000000000000000e+00 -1.1051804154360299e+02 -2.3822188058292628e+00 -1.1298254959597436e+02 0 0 0
2063 83 1 0.0000000000000000e+00 -9.7086264724596788e+01 -6.0879645157767959e+00 -1.0913028830870732e+02 0 0 0
4476 180 3 0.0000000000000000e+00 -8.5897004230389385e+01 -7.8632171425210755e+00 -1.0754614343232261e+02 0 0 0
3154 127 4 0.0000000000000000e+00 -7.3627365784029706e+01 -4.4684632221924137e+00 -9.9446393317859659e+01 0 0 0
4477 180 4 0.0000000000000000e+00 -7.8794964591731869e+01 -4.9859171250646467e-01 -1.0746515732480620e+02 0 0 0
2017 81 2 0.0000000000000000e+00 -5.5438412490641625e+01 1.0831195928598167e+00 -1.1243857238796704e+02 0 0 0
2067 83 2 0.0000000000000000e+00 -6.7511265421535128e+01 -3.0050922836235632e+00 -1.1029749470796271e+02 0 0 0
2068 83 2 0.0000000000000000e+00 -6.1676998926586101e+01 -2.5931679018996632e+00 -1.0224371679641030e+02 0 0 0
3630 146 4 0.0000000000000000e+00 -3.9270035579183585e+01 -9.0903575390413440e+00 -1.0236604388501854e+02 0 0 0
2165 87 2 0.0000000000000000e+00 -2.9410642220092708e+01 -7.8802781852437089e+00 -1.0958755796895403e+02 0 0 0
2164 87 2 0.0000000000000000e+00 -2.0308089630951450e+01 -3.4287041459398493e+00 -1.0996786752708950e+02 0 0 0
4881 196 4 0.0000000000000000e+00 -2.3018564198156085e+01 -4.8830224510036144e+00 -1.0042583798262903e+02 0 0 0
936 38 2 0.0000000000000000e+00 -1.0903760628112591e+01 -4.6748193439139607e+00 -1.0210826316611748e+02 0 0 0
937 38 2 0.0000000000000000e+00 -5.0253483621912469e+00 -7.5623953549256653e+00 -1.0981365498288791e+02 0 0 0
4747 190 4 0.0000000000000000e+00 -1.1209619473974597e+02 1.3701483571143701e+01 -1.0395255875151203e+02 0 0 0
4748 190 4 0.0000000000000000e+00 -1.0833858890114649e+02 9.8129874552175824e+00 -1.1187834790910217e+02 0 0 0
2878 116 4 0.0000000000000000e+00 -9.9720903971929573e+01 6.6056836466161046e+00 -9.9526281245030077e+01 0 0 0
2879 116 4 0.0000000000000000e+00 -9.2443021548502387e+01 8.7841469645433836e+00 -1.0676070962208881e+02 0 0 0
4478 180 4 0.0000000000000000e+00 -7.4763890130502702e+01 6.5534114608305263e+00 -1.0114373453132481e+02 0 0 0
2011 81 2 0.0000000000000000e+00 -7.6055977264143863e+01 1.4027469776921887e+01 -1.1026463190208308e+02 0 0 0
3416 137 4 0.0000000000000000e+00 -6.5017808015783913e+01 8.5566826802594118e+00 -1.1030917067676702e+02 0 0 0
2016 81 2 0.0000000000000000e+00 -5.5143452304922739e+01 7.4529493180971116e+00 -1.0479124934053483e+02 0 0 0
4482 180 3 0.0000000000000000e+00 -4.2524594732516420e+01 1.1408083254955635e+01 -9.9478840841939046e+01 0 0 0
2993 120 4 0.0000000000000000e+00 -3.1250960859835853e+01 1.3622984520267366e+01 -1.0593620191442290e+02 0 0 0
1051 43 1 0.0000000000000000e+00 -3.8092540079607595e+01 4.1635244884080489e+00 -1.0715666754190981e+02 0 0 0
2994 120 3 0.0000000000000000e+00 -2.4696703253055475e+01 7.0081476445641799e+00 -1.1122713444572912e+02 0 0 0
2163 87 1 0.0000000000000000e+00 -1.4032741637036864e+01 4.5789030479975663e+00 -1.1014477281471606e+02 0 0 0
83 4 2 0.0000000000000000e+00 -1.7736743325269028e+01 1.3006091550298393e+01 -9.9609166293936440e+01 0 0 0
998 40 2 0.0000000000000000e+00 -2.8398966020797292e+00 1.2280766386676632e+01 -1.0254650696267556e+02 0 0 0
997 40 2 0.0000000000000000e+00 1.2088636076897694e+00 6.0140172679200550e+00 -1.0990373019039470e+02 0 0 0
4271 171 4 0.0000000000000000e+00 -1.0902865683872244e+01 1.6026444378355535e+01 -1.0779329468364033e+02 0 0 0
263 11 1 0.0000000000000000e+00 -1.5455313227155152e+00 -8.8755667118768329e+01 -9.6799099689201796e+01 0 0 0
4157 167 3 0.0000000000000000e+00 -7.1528794846636913e+01 -7.5320062673928433e+01 -8.7409671192176944e+01 0 0 0
4156 167 4 0.0000000000000000e+00 -6.7018367399024186e+01 -7.6509233303023549e+01 -9.6375691168971457e+01 0 0 0
1990 80 2 0.0000000000000000e+00 -5.7669396832943065e+01 -7.1311557217167191e+01 -9.5140125321602710e+01 0 0 0
1666 67 2 0.0000000000000000e+00 -2.8441654001149658e+01 -7.5758527827074815e+01 -9.8995284363295625e+01 0 0 0
3997 160 4 0.0000000000000000e+00 -3.8859053214089315e+01 -6.9675356859351069e+01 -9.4505250775431165e+01 0 0 0
1667 67 2 0.0000000000000000e+00 -2.0163649024659996e+01 -7.1345938384000192e+01 -9.5776748563297062e+01 0 0 0
3080 124 4 0.0000000000000000e+00 -1.7404912410983730e+01 -7.6494794649897756e+01 -8.5702342936603372e+01 0 0 0
3081 124 4 0.0000000000000000e+00 -8.5585035839607748e+00 -7.9732257788381744e+01 -9.0358920604513997e+01 0 0 0
3082 124 3 0.0000000000000000e+00 -1.3361714967952922e+00 -7.7317152656116789e+01 -9.7178648039109319e+01 0 0 0
4199 168 4 0.0000000000000000e+00 -6.8454526402229305e+01 -5.4474048123092295e+01 -9.0504800875462649e+01 0 0 0
4200 168 3 0.0000000000000000e+00 -7.7792381329154324e+01 -5.5093617052515228e+01 -9.5914182753036727e+01 0 0 0
2400 96 1 0.0000000000000000e+00 -6.5751559200550005e+01 -6.6193813714544362e+01 -8.6209150025585274e+01 0 0 0
4198 168 4 0.0000000000000000e+00 -5.9327827874630600e+01 -5.8910669874158664e+01 -8.9744191796484913e+01 0 0 0