LAMMPS data file via write_data, version 5 Jun 2019, timestep = 400000000

5000 atoms
4 atom types
5295 bonds
3 bond types
4600 angles
2 angle types

-2.5000000000000000e+02 2.5000000000000000e+02 xlo xhi
-2.5000000000000000e+02 2.5000000000000000e+02 ylo yhi
-2.5000000000000000e+02 2.5000000000000000e+02 zlo zhi

Masses

1 1000
2 1000
3 1000
4 1000

Pair Coeffs # lj/cut

1 0.3 10
2 0.3 10
3 0.3 10
4 0.3 10

Bond Coeffs # harmonic

1 3 10
2 3 10
3 3 11.22

Angle Coeffs # cosine

1 2
2 2

Atoms # full

2678 108 4 0.0000000000000000e+00 -4.8164940785000610e+01 4.3862044913911857e+00 -1.8068149063813763e+02 0 0 0
4466 179 4 0.0000000000000000e+00 -3.4996341923922373e+01 4.5665332597252961e+00 -1.8482924220042230e+02 0 0 0
2676 108 3 0.0000000000000000e+00 -5.4701572614065093e+01 -9.4941388179036590e+00 -1.6910285734689990e+02 0 0 0
2243 90 2 0.0000000000000000e+00 -3.4842046765548325e+01 -9.8967335494249138e+00 -1.7159178222643123e+02 0 0 0
2677 108 4 0.0000000000000000e+00 -5.2983842321824596e+01 4.7070386078640664e-01 -1.7243773068082936e+02 0 0 0
2242 90 2 0.0000000000000000e+00 -4.2919226451245798e+01 -3.3362115446513547e+00 -1.7078281964350964e+02 0 0 0
4465 179 4 0.0000000000000000e+00 -3.0640067669859302e+01 -7.6415097948366173e-01 -1.7788976630345829e+02 0 0 0
402 17 2 0.0000000000000000e+00 -3.6317538869389978e+01 4.6515577246052482e+00 -1.6976753102406207e+02 0 0 0
4464 179 4 0.0000000000000000e+00 -2.5534741918618121e+01 -3.0626098677121454e+00 -1.6920645955036767e+02 0 0 0
271 11 2 0.0000000000000000e+00 -1.4305311463039538e+00 -8.2843744848666034e+01 -1.5539175564716638e+02 0 0 0
272 11 2 0.0000000000000000e+00 -3.2805317699699086e+00 -7.2649308298683337e+01 -1.5442629913391616e+02 0 0 0
273 11 2 0.0000000000000000e+00 -7.2269944794218715e+00 -6.4329267111280330e+01 -1.5775442385337163e+02 0 0 0
274 11 2 0.0000000000000000e+00 -8.2906087353098918e+00 -5.4668978796694290e+01 -1.5504805196311827e+02 0 0 0
3061 123 4 0.0000000000000000e+00 -2.5723719138775717e+01 -3.4808034576625580e+01 -1.5792917973782849e+02 0 0 0
4460 179 4 0.0000000000000000e+00 -1.6661727325149016e+01 -3.7479475844594738e+01 -1.6230017063629623e+02 0 0 0
4459 179 4 0.0000000000000000e+00 -8.9086637887542466e+00 -3.7337081506198103e+01 -1.5616503691752965e+02 0 0 0
1849 74 2 0.0000000000000000e+00 -4.7244428166407666e+01 -2.1922276105569242e+01 -1.5425609541758362e+02 0 0 0
3059 123 4 0.0000000000000000e+00 -4.0390993151729788e+01 -2.1382161098621616e+01 -1.6139557811512014e+02 0 0 0
3060 123 4 0.0000000000000000e+00 -3.3430111818216808e+01 -2.8349200013433038e+01 -1.6064553160702107e+02 0 0 0
4461 179 4 0.0000000000000000e+00 -2.2553134043784173e+01 -2.9735654378889365e+01 -1.6582148973816905e+02 0 0 0
4462 179 4 0.0000000000000000e+00 -2.1127252046309941e+01 -2.0243114322729774e+01 -1.6264215098352778e+02 0 0 0
1455 59 2 0.0000000000000000e+00 -1.6284333234054333e+01 -2.0351774871332843e+01 -1.5313309520721458e+02 0 0 0
1456 59 2 0.0000000000000000e+00 -8.5115564968910835e+00 -2.4279004010231887e+01 -1.5859063102145882e+02 0 0 0
1457 59 1 0.0000000000000000e+00 3.1752011413601661e-01 -2.0899001417443667e+01 -1.6264927659128722e+02 0 0 0
1850 74 1 0.0000000000000000e+00 -5.2450740794717937e+01 -1.6525976113911739e+01 -1.6074330302439742e+02 0 0 0
3058 123 4 0.0000000000000000e+00 -4.0448489803639355e+01 -1.1336301145137195e+01 -1.6181005580039349e+02 0 0 0
3057 123 3 0.0000000000000000e+00 -4.8125931166746938e+01 -5.7928072299881910e+00 -1.5878172005824885e+02 0 0 0
2245 90 2 0.0000000000000000e+00 -2.8412289276890803e+01 -1.8852972922313963e+01 -1.5466353720753466e+02 0 0 0
2244 90 1 0.0000000000000000e+00 -3.0347885287328836e+01 -1.4242223963878526e+01 -1.6338789598431060e+02 0 0 0
4463 179 3 0.0000000000000000e+00 -2.0140289445604974e+01 -1.0797779058128357e+01 -1.6541627705789691e+02 0 0 0
1453 59 2 0.0000000000000000e+00 -2.0340148156904508e+01 -9.5211177169303944e+00 -1.5587147315752998e+02 0 0 0
3404 137 4 0.0000000000000000e+00 -5.7548334626165714e+00 -6.8699600295130567e+00 -1.6257780681576102e+02 0 0 0
3403 137 4 0.0000000000000000e+00 -1.1271758820529935e-01 -1.2600533752700400e+01 -1.5706069159755913e+02 0 0 0
3056 123 4 0.0000000000000000e+00 -5.6202056268750482e+01 -9.0811227265577987e-01 -1.6097665332423907e+02 0 0 0
2241 90 2 0.0000000000000000e+00 -4.6302240983447916e+01 3.8662591730337668e+00 -1.6531151072318792e+02 0 0 0
401 17 1 0.0000000000000000e+00 -3.7990651075540491e+01 -1.3713707815190721e+00 -1.6169475379539199e+02 0 0 0
3409 137 4 0.0000000000000000e+00 -4.5063484902652405e+01 4.8426538376800368e+00 -1.5539465366015094e+02 0 0 0
1452 59 2 0.0000000000000000e+00 -2.6566984899922335e+01 -1.3109738868062297e+00 -1.5579424685233147e+02 0 0 0
3405 137 4 0.0000000000000000e+00 -1.3382143098421846e+01 -7.1021912406607435e-01 -1.6529150937737319e+02 0 0 0
3406 137 4 0.0000000000000000e+00 -1.8607768475080373e+01 5.2794983226256411e+00 -1.5967461712333647e+02 0 0 0
3206 129 4 0.0000000000000000e+00 -1.9691011536497998e+00 3.5275701070119649e+00 -1.6038162901695156e+02 0 0 0
269 11 1 0.0000000000000000e+00 2.0534877772650102e+00 -8.0513864376554764e+01 -1.3838880551955350e+02 0 0 0
270 11 2 0.0000000000000000e+00 2.6462681001912678e+00 -7.7913467948521088e+01 -1.4775010582692849e+02 0 0 0
1990 80 2 0.0000000000000000e+00 -7.2411693930440379e+01 -4.6807355601172972e+01 -1.4116950930868336e+02 0 0 0
1992 80 2 0.0000000000000000e+00 -5.5328163614405675e+01 -5.4207154621394977e+01 -1.4583923685566307e+02 0 0 0
1991 80 2 0.0000000000000000e+00 -6.3102537993244688e+01 -4.8080832630741220e+01 -1.4443591334495088e+02 0 0 0
1993 80 2 0.0000000000000000e+00 -4.5985142031359018e+01 -5.3492448151775271e+01 -1.4876973828067480e+02 0 0 0
1994 80 1 0.0000000000000000e+00 -3.9448342209792557e+01 -5.4027132339461119e+01 -1.4118763288533674e+02 0 0 0
275 11 1 0.0000000000000000e+00 -6.8613375598249151e+00 -4.6902328727156515e+01 -1.4844763429309148e+02 0 0 0
4198 168 4 0.0000000000000000e+00 -5.3908945014344454e+01 -4.0103959782709872e+01 -1.3917493985039229e+02 0 0 0
4196 168 4 0.0000000000000000e+00 -4.0026851339174485e+01 -3.7970853821342793e+01 -1.5100594542312754e+02 0 0 0
4197 168 4 0.0000000000000000e+00 -4.7227940873335847e+01 -4.3518246927038582e+01 -1.4549870696053719e+02 0 0 0
4195 168 4 0.0000000000000000e+00 -3.6077875710281965e+01 -4.0251548534907201e+01 -1.4185114517210505e+02 0 0 0
3063 123 3 0.0000000000000000e+00 -1.4795656024741273e+01 -4.0753738681086340e+01 -1.4332360663858745e+02 0 0 0
3062 123 4 0.0000000000000000e+00 -2.1401178816639785e+01 -3.7983970051600174e+01 -1.4953518174411150e+02 0 0 0
4458 179 4 0.0000000000000000e+00 -2.4280781721132429e+00 -3.4306109854401612e+01 -1.4880856125511880e+02 0 0 0
1831 74 2 0.0000000000000000e+00 -4.5773644935506397e+00 -3.4077660225074716e+01 -1.3924527778670361e+02 0 0 0
1848 74 2 0.0000000000000000e+00 -3.7960331139020617e+01 -2.6192124470422367e+01 -1.5142110585035471e+02 0 0 0
1053 43 2 0.0000000000000000e+00 -4.8168005031434575e+01 -2.0171057541081353e+01 -1.4451365403637496e+02 0 0 0
1846 74 2 0.0000000000000000e+00 -2.5252614244520164e+01 -3.2210102574822557e+01 -1.3883882892410023e+02 0 0 0
1847 74 2 0.0000000000000000e+00 -2.8612561238499143e+01 -2.9729592987044867e+01 -1.4771776730449409e+02 0 0 0
4456 179 4 0.0000000000000000e+00 -1.6551829247651202e+01 -2.3187545445676239e+01 -1.3938361941072563e+02 0 0 0
4457 179 3 0.0000000000000000e+00 -1.0664871547869485e+01 -2.9186755389989745e+01 -1.4444573888311510e+02 0 0 0
4783 192 4 0.0000000000000000e+00 5.2799512088672462e-01 -2.4872216014475061e+01 -1.4938087935585696e+02 0 0 0
1830 74 2 0.0000000000000000e+00 4.6037126988864330e+00 -3.0932695662576727e+01 -1.4131713943989860e+02 0 0 0
1051 43 1 0.0000000000000000e+00 -6.3227759436688466e+01 -1.2429921551273088e+01 -1.4028489238121963e+02 0 0 0
1054 43 2 0.0000000000000000e+00 -4.1278261033629995e+01 -1.3123588695833758e+01 -1.4816175393878910e+02 0 0 0
1055 43 2 0.0000000000000000e+00 -3.2605503719971296e+01 -8.9415256261673921e+00 -1.5045377297726947e+02 0 0 0
2246 90 2 0.0000000000000000e+00 -3.0686027511330057e+01 -1.7348368195189188e+01 -1.4471338245409962e+02 0 0 0
1454 59 2 0.0000000000000000e+00 -1.6319599247038585e+01 -1.2699606814607231e+01 -1.4667691902778259e+02 0 0 0
4784 192 4 0.0000000000000000e+00 -3.0282549603084683e+00 -1.8748023259588106e+01 -1.4178949548701789e+02 0 0 0
3413 137 3 0.0000000000000000e+00 -8.1861983962783995e+01 5.2970187195583751e+00 -1.4449323967141700e+02 0 0 0
3412 137 4 0.0000000000000000e+00 -7.2713762779037467e+01 2.8941184778043780e+00 -1.4773194419862580e+02 0 0 0
3411 137 4 0.0000000000000000e+00 -6.2872762550251622e+01 3.0803819251300224e+00 -1.4869627512439780e+02 0 0 0
3410 137 4 0.0000000000000000e+00 -5.3454462516246195e+01 1.0433877443524902e+00 -1.5092765143277720e+02 0 0 0
2248 90 2 0.0000000000000000e+00 -3.8465496912565051e+01 -2.3118741080201768e+00 -1.3985939923232996e+02 0 0 0
1451 59 1 0.0000000000000000e+00 -3.3377956895614211e+01 4.0929163023859791e+00 -1.5117249725883653e+02 0 0 0
1056 43 2 0.0000000000000000e+00 -2.6394523061802001e+01 -3.2371788383402156e+00 -1.4427868337872559e+02 0 0 0
1057 43 1 0.0000000000000000e+00 -2.3122127004128163e+01 6.4982278690322621e+00 -1.4493273097362885e+02 0 0 0
3207 129 3 0.0000000000000000e+00 -7.6410999123052017e+00 8.3326496300588004e-01 -1.5210140102000193e+02 0 0 0
3208 129 4 0.0000000000000000e+00 1.1065399923223465e+00 5.5384433352697755e+00 -1.5068113648989265e+02 0 0 0
408 17 2 0.0000000000000000e+00 3.1442843467181453e-01 6.7254853539765218e+00 -1.4154191161373981e+02 0 0 0
4192 168 4 0.0000000000000000e+00 -4.8225059554103218e+01 -6.2432767797354117e+01 -1.3557843220085346e+02 0 0 0
4191 168 4 0.0000000000000000e+00 -4.3724077578466286e+01 -6.4032451704821014e+01 -1.2643345602211555e+02 0 0 0
268 11 2 0.0000000000000000e+00 -5.3339179304423967e-01 -7.1647949984595641e+01 -1.3344647929649912e+02 0 0 0
267 11 2 0.0000000000000000e+00 -2.2124401751465239e+00 -6.8276399958143784e+01 -1.2427762490857346e+02 0 0 0
4193 168 4 0.0000000000000000e+00 -4.9869065478880145e+01 -5.2611959726117490e+01 -1.3781430641430103e+02 0 0 0
579 24 2 0.0000000000000000e+00 -4.4735149288682415e+01 -5.4473553143516732e+01 -1.2846942565155442e+02 0 0 0
1995 80 2 0.0000000000000000e+00 -3.0390547234009968e+01 -5.8011352276587708e+01 -1.3803288708797496e+02 0 0 0
1996 80 2 0.0000000000000000e+00 -2.6476957642925441e+01 -5.6227120524949008e+01 -1.2868670550747595e+02 0 0 0
578 24 2 0.0000000000000000e+00 -3.6722103520662550e+01 -4.9968933104375346e+01 -1.2502910319308808e+02 0 0 0
3064 123 4 0.0000000000000000e+00 -2.1183366363182905e+01 -4.6787171860117496e+01 -1.3806504619757160e+02 0 0 0
1989 80 2 0.0000000000000000e+00 -7.4764258053827319e+01 -3.8865969053657018e+01 -1.3526301742054576e+02 0 0 0
4199 168 4 0.0000000000000000e+00 -6.2307508310347224e+01 -3.9431675330584547e+01 -1.3290955569950609e+02 0 0 0
4194 168 3 0.0000000000000000e+00 -4.3526132056742661e+01 -4.4644190391208461e+01 -1.3645133787676443e+02 0 0 0
3066 123 4 0.0000000000000000e+00 -3.7783156130088287e+01 -3.8052298780334546e+01 -1.3017392439025792e+02 0 0 0
3065 123 4 0.0000000000000000e+00 -2.9394469102121672e+01 -4.2389701044396688e+01 -1.3450371638180977e+02 0 0 0
1845 74 2 0.0000000000000000e+00 -2.5053272948416748e+01 -3.3115729233209407e+01 -1.2887337491379299e+02 0 0 0
1832 74 1 0.0000000000000000e+00 -1.3376528475343273e+01 -3.3795473038635656e+01 -1.3397866127722151e+02 0 0 0
1987 80 2 0.0000000000000000e+00 -8.7951528609574666e+01 -2.9207022057992521e+01 -1.2898270231645739e+02 0 0 0
1986 80 2 0.0000000000000000e+00 -8.9773384801536253e+01 -2.0264511943129524e+01 -1.2510344195453118e+02 0 0 0
1988 80 1 0.0000000000000000e+00 -7.8198043438209965e+01 -3.2119083864469943e+01 -1.2850086414757843e+02 0 0 0
4200 168 3 0.0000000000000000e+00 -6.8023721280572616e+01 -3.1302861084155492e+01 -1.3333193134997046e+02 0 0 0
2167 87 2 0.0000000000000000e+00 -4.5806013793301027e+01 -2.1235246946490683e+01 -1.2868336399301654e+02 0 0 0
4454 179 4 0.0000000000000000e+00 -3.5955408330075223e+01 -2.2824377023518320e+01 -1.3649167760252018e+02 0 0 0
4455 179 4 0.0000000000000000e+00 -2.6204589950088618e+01 -2.0435207299789994e+01 -1.3697041159829502e+02 0 0 0
1833 74 2 0.0000000000000000e+00 -8.2268377232195586e+00 -2.5592556513700142e+01 -1.3007345147150741e+02 0 0 0
4479 180 4 0.0000000000000000e+00 -9.4482268480085025e+01 -1.1171394571117128e+01 -1.2436576599615606e+02 0 0 0
4480 180 4 0.0000000000000000e+00 -8.5892561814693948e+01 -5.8937673249829245e+00 -1.2717662502573188e+02 0 0 0
4000 160 3 0.0000000000000000e+00 -7.6480068479036547e+01 -1.8813540693895966e+01 -1.3660678603561288e+02 0 0 0
3999 160 4 0.0000000000000000e+00 -7.6071305390667575e+01 -1.5308493628028684e+01 -1.2739858241023607e+02 0 0 0
1052 43 2 0.0000000000000000e+00 -5.5087959997667525e+01 -1.6611236428137762e+01 -1.3705887266942253e+02 0 0 0
4453 179 4 0.0000000000000000e+00 -4.1586907763413585e+01 -1.4179417600216935e+01 -1.3574549388781452e+02 0 0 0
4452 179 4 0.0000000000000000e+00 -4.6270508467602838e+01 -5.6624633593613982e+00 -1.3584123808821593e+02 0 0 0
2166 87 2 0.0000000000000000e+00 -3.9008572587323499e+01 -1.4869182270424355e+01 -1.2569691290951791e+02 0 0 0
2247 90 2 0.0000000000000000e+00 -3.2665862680278394e+01 -1.0377487846112484e+01 -1.3723357387488994e+02 0 0 0
3180 128 4 0.0000000000000000e+00 -2.1544767534244706e+01 -8.2860945119449188e+00 -1.2941020820651948e+02 0 0 0
1834 74 2 0.0000000000000000e+00 -2.3791807543972605e+00 -1.8295666913739375e+01 -1.2575340039483400e+02 0 0 0
4785 192 4 0.0000000000000000e+00 -4.1057216139546719e+00 -1.0277741570721128e+01 -1.3584714915640402e+02 0 0 0
3414 137 4 0.0000000000000000e+00 -8.3085382455903044e+01 6.9963502937442206e+00 -1.3440512453842516e+02 0 0 0
4482 180 3 0.0000000000000000e+00 -6.7492881625796372e+01 -3.3314595469024715e+00 -1.3563465866573128e+02 0 0 0
4481 180 4 0.0000000000000000e+00 -7.7448899292677879e+01 -4.2568152113102977e+00 -1.3283457083883576e+02 0 0 0
2067 83 2 0.0000000000000000e+00 -7.1963949099486769e+01 1.0431181156855078e-01 -1.2447469386562514e+02 0 0 0
4483 180 4 0.0000000000000000e+00 -5.9255404188955190e+01 1.5840630629719434e+00 -1.3402922672693333e+02 0 0 0
4451 179 3 0.0000000000000000e+00 -5.0874212963485803e+01 -2.9002894636365406e+00 -1.2756609893463566e+02 0 0 0
2249 90 2 0.0000000000000000e+00 -4.3983563474788745e+01 2.6177119808536959e+00 -1.3252012409338195e+02 0 0 0
2250 90 1 0.0000000000000000e+00 -4.8078215895515953e+01 7.5894570355233935e+00 -1.2530150716466120e+02 0 0 0
3181 128 4 0.0000000000000000e+00 -2.0859434230427457e+01 2.1289656810759544e-01 -1.3462769816961421e+02 0 0 0
4786 192 4 0.0000000000000000e+00 -4.8266088593903742e+00 -1.8137061175750633e+00 -1.2968942679764618e+02 0 0 0
4787 192 4 0.0000000000000000e+00 -1.0461451461818003e+00 6.7123086357203450e+00 -1.2581051035890974e+02 0 0 0
409 17 2 0.0000000000000000e+00 4.1518562621567243e+00 -1.3214889018135414e+00 -1.3755387295510158e+02 0 0 0
264 11 2 0.0000000000000000e+00 -2.0041088347976128e+01 -7.5674067270103905e+01 -1.1040802981727327e+02 0 0 0
4190 168 4 0.0000000000000000e+00 -3.7742049101212821e+01 -6.4249229705147300e+01 -1.1813625176191137e+02 0 0 0
266 11 2 0.0000000000000000e+00 -2.7567200759847248e+00 -7.1097883749698340e+01 -1.1444387307953805e+02 0 0 0
581 24 2 0.0000000000000000e+00 -5.4846810143423440e+01 -5.2292975141277118e+01 -1.1180958799588817e+02 0 0 0
580 24 2 0.0000000000000000e+00 -4.9110402477898070e+01 -5.3657459595808412e+01 -1.1958620466589397e+02 0 0 0
577 24 2 0.0000000000000000e+00 -3.9696407014465514e+01 -4.8519155389449288e+01 -1.1604025942638036e+02 0 0 0
1997 80 2 0.0000000000000000e+00 -2.1367154410318744e+01 -4.9210391447246764e+01 -1.2387448654077942e+02 0 0 0
1998 80 2 0.0000000000000000e+00 -2.2883765504376633e+01 -5.1421107994200042e+01 -1.1373269793849271e+02 0 0 0
1166 47 2 0.0000000000000000e+00 -9.4860227567073867e+00 -4.9410945487986424e+01 -1.1652427011032272e+02 0 0 0
1165 47 2 0.0000000000000000e+00 -1.4497967663798064e+00 -5.4471386224025302e+01 -1.1589206526633590e+02 0 0 0
3069 123 3 0.0000000000000000e+00 -6.2073239198180332e+01 -4.1956927602675627e+01 -1.1502342595124894e+02 0 0 0
3068 123 4 0.0000000000000000e+00 -5.2919698229986842e+01 -4.0970234861445853e+01 -1.2039292670545481e+02 0 0 0
3067 123 4 0.0000000000000000e+00 -4.2727010324772486e+01 -4.0980229254066742e+01 -1.2163721313703769e+02 0 0 0
576 24 1 0.0000000000000000e+00 -4.5987527995381882e+01 -4.3613356787794281e+01 -1.1110835069573547e+02 0 0 0
3176 128 3 0.0000000000000000e+00 -3.5342831451504637e+01 -3.9673139483518227e+01 -1.1087946123192762e+02 0 0 0
4151 167 3 0.0000000000000000e+00 -2.6870436514199366e+01 -4.0252182099729836e+01 -1.1642795564830509e+02 0 0 0
1985 80 2 0.0000000000000000e+00 -9.2585157561863696e+01 -2.5805803801345391e+01 -1.1646085696306925e+02 0 0 0
3998 160 4 0.0000000000000000e+00 -7.9259153330644779e+01 -1.9618224128501126e+01 -1.1880285808687761e+02 0 0 0
2168 87 2 0.0000000000000000e+00 -5.3885285337798187e+01 -2.5977572920211276e+01 -1.2340748952146662e+02 0 0 0
2169 87 1 0.0000000000000000e+00 -5.7327969243583844e+01 -2.0205614250654932e+01 -1.1598117517192094e+02 0 0 0
2072 83 2 0.0000000000000000e+00 -4.8457958207065332e+01 -2.8175822799544147e+01 -1.1207018738316491e+02 0 0 0
2071 83 2 0.0000000000000000e+00 -4.3698103102629730e+01 -2.4004642610508512e+01 -1.1945086432813947e+02 0 0 0
3177 128 4 0.0000000000000000e+00 -3.5502205843479445e+01 -3.0508127180571567e+01 -1.1602424072539324e+02 0 0 0
3178 128 4 0.0000000000000000e+00 -3.1584088857621971e+01 -2.2208078734399148e+01 -1.1997066461743520e+02 0 0 0
1844 74 1 0.0000000000000000e+00 -2.0144078665871703e+01 -3.1907888128975955e+01 -1.2090270197190964e+02 0 0 0
1843 74 2 0.0000000000000000e+00 -1.2761000708728194e+01 -3.2703050181249502e+01 -1.1401625049061771e+02 0 0 0
1836 74 2 0.0000000000000000e+00 4.0183781817363045e+00 -2.9402248502983714e+01 -1.1210706768803949e+02 0 0 0
1835 74 2 0.0000000000000000e+00 -1.6325148403257952e+00 -2.7116209273958468e+01 -1.2009502631335141e+02 0 0 0
1980 80 2 0.0000000000000000e+00 -1.0731586234448048e+02 -1.3159969573396291e+01 -1.1139084780667601e+02 0 0 0
4478 180 4 0.0000000000000000e+00 -9.5525463553936490e+01 -1.5667705790070800e+01 -1.1543570354239942e+02 0 0 0
3157 127 3 0.0000000000000000e+00 -6.8516824445267801e+01 -1.9035163572332308e+01 -1.1730509666767028e+02 0 0 0
3156 127 4 0.0000000000000000e+00 -7.0161724804456071e+01 -8.7956529020059122e+00 -1.1680702279824969e+02 0 0 0
3997 160 4 0.0000000000000000e+00 -7.4833005243510385e+01 -1.4781725825641209e+01 -1.1064425440287005e+02 0 0 0
2069 83 1 0.0000000000000000e+00 -5.5824951580682495e+01 -8.7401999491286784e+00 -1.1936005244003670e+02 0 0 0
2070 83 2 0.0000000000000000e+00 -4.8658361102260145e+01 -1.5509033022625131e+01 -1.2066574146033351e+02 0 0 0
2165 87 2 0.0000000000000000e+00 -3.7128453439213885e+01 -9.0427151258934355e+00 -1.1831968633222735e+02 0 0 0
3179 128 4 0.0000000000000000e+00 -2.8419888461395953e+01 -1.3249782455606725e+01 -1.2384478689997654e+02 0 0 0
1976 80 1 0.0000000000000000e+00 -1.2968552833918105e+02 7.8917170374117696e+00 -1.1138266957309007e+02 0 0 0
1977 80 2 0.0000000000000000e+00 -1.2090573333130473e+02 5.8562984947821324e+00 -1.1522322341235265e+02 0 0 0
1978 80 2 0.0000000000000000e+00 -1.1214204560557388e+02 2.6248198642591984e+00 -1.1738814280639636e+02 0 0 0
1979 80 2 0.0000000000000000e+00 -1.0602019958076043e+02 -5.1479517677068927e+00 -1.1645117087284669e+02 0 0 0
2884 116 4 0.0000000000000000e+00 -8.9588260753196991e+01 6.1667009228360143e+00 -1.1945088142753151e+02 0 0 0
2065 83 2 0.0000000000000000e+00 -8.9037370453905481e+01 -5.3090001547324510e+00 -1.1610868790939027e+02 0 0 0
2066 83 2 0.0000000000000000e+00 -7.9488446199557927e+01 -3.4906603223852564e+00 -1.1828231479726027e+02 0 0 0
3155 127 4 0.0000000000000000e+00 -7.1255370762032996e+01 1.2362957116774131e+00 -1.1390435063683309e+02 0 0 0
2068 83 2 0.0000000000000000e+00 -6.2812628873125661e+01 -1.5613122614250889e+00 -1.2083858488856298e+02 0 0 0
3626 146 3 0.0000000000000000e+00 -4.7752959682725326e+01 4.9698652862291226e+00 -1.1398507468538432e+02 0 0 0
2164 87 2 0.0000000000000000e+00 -3.0428893973062010e+01 -1.6693598764194939e+00 -1.1809300602688550e+02 0 0 0
2163 87 1 0.0000000000000000e+00 -2.3059325038414926e+01 1.8154087739941507e+00 -1.1224885652366032e+02 0 0 0
2161 87 2 0.0000000000000000e+00 -4.8492394103672032e+00 6.8938734851692800e+00 -1.1544461419594244e+02 0 0 0
2160 87 2 0.0000000000000000e+00 3.1728409801108874e+00 1.3901023426342176e+00 -1.1823324406756795e+02 0 0 0
265 11 2 0.0000000000000000e+00 -9.8362022544749088e+00 -7.6374965245740327e+01 -1.0836743710172090e+02 0 0 0
3850 154 3 0.0000000000000000e+00 -8.1831809632001324e+01 -6.0128066489373019e+01 -9.7740321137488991e+01 0 0 0
4189 168 4 0.0000000000000000e+00 -3.9352119731301222e+01 -6.2330260344871739e+01 -1.0868301884788049e+02 0 0 0
3082 124 3 0.0000000000000000e+00 -2.4770757307690165e+01 -6.0382687635506471e+01 -1.0035101909975748e+02 0 0 0
263 11 1 0.0000000000000000e+00 -2.1741057475641743e+01 -7.0483983789336136e+01 -1.0221229325451429e+02 0 0 0
3526 142 3 0.0000000000000000e+00 -1.4637360033277234e+00 -7.2995296988574523e+01 -1.0030738441878705e+02 0 0 0
1161 47 2 0.0000000000000000e+00 -4.9409624708368378e+00 -6.2145137403797591e+01 -9.8307074000001521e+01 0 0 0
2394 96 1 0.0000000000000000e+00 -8.6790070500903596e+01 -5.1049458401050074e+01 -1.0007018793910861e+02 0 0 0
2392 96 2 0.0000000000000000e+00 -7.0199773171395890e+01 -5.7667907596193515e+01 -1.0261030603325104e+02 0 0 0
2393 96 2 0.0000000000000000e+00 -7.9447557386934264e+01 -5.4003528880511446e+01 -1.0675805557185495e+02 0 0 0
583 24 2 0.0000000000000000e+00 -7.2192175274361176e+01 -4.8260625271520439e+01 -1.0301727951150590e+02 0 0 0
582 24 1 0.0000000000000000e+00 -6.4587945675230273e+01 -5.1070496147259306e+01 -1.0870900949688476e+02 0 0 0
2391 96 2 0.0000000000000000e+00 -6.1218347321116823e+01 -5.5123894279303677e+01 -1.0020387845134636e+02 0 0 0
4188 168 3 0.0000000000000000e+00 -4.2413560614968340e+01 -5.9577405983339808e+01 -9.9158328304436338e+01 0 0 0
2000 80 1 0.0000000000000000e+00 -3.3444808388490671e+01 -5.2938902962456176e+01 -9.8122267916617190e+01 0 0 0
1999 80 2 0.0000000000000000e+00 -3.1295823401794394e+01 -5.2919309645785177e+01 -1.0772719710739649e+02 0 0 0
4153 167 4 0.0000000000000000e+00 -2.3762842528454204e+01 -4.7710567805391804e+01 -9.9633977536765030e+01 0 0 0
3083 124 4 0.0000000000000000e+00 -1.6964558872377658e+01 -5.6466574793996585e+01 -1.0561378447057120e+02 0 0 0
3084 124 4 0.0000000000000000e+00 -7.8417870249952042e+00 -5.2887200649201112e+01 -1.0505561765053787e+02 0 0 0
1162 47 2 0.0000000000000000e+00 4.5534346281855944e+00 -5.8387601577921593e+01 -9.7344026539062881e+01 0 0 0
3075 123 3 0.0000000000000000e+00 -1.1021354912395361e+02 -3.8535224605261327e+01 -9.8587456112649335e+01 0 0 0
3072 123 4 0.0000000000000000e+00 -8.6611835820399151e+01 -3.9347023213395858e+01 -9.9590941267774170e+01 0 0 0
3070 123 4 0.0000000000000000e+00 -7.0637810866215844e+01 -3.9806266964614451e+01 -1.1023663640480086e+02 0 0 0
3071 123 4 0.0000000000000000e+00 -7.8187851595322755e+01 -3.6990789176163808e+01 -1.0422650045584903e+02 0 0 0
3160 127 4 0.0000000000000000e+00 -5.4843356034178214e+01 -3.7585256684114853e+01 -1.0222393872274857e+02 0 0 0
4152 167 4 0.0000000000000000e+00 -2.5702110543983977e+01 -4.1410979597733437e+01 -1.0697331456454607e+02 0 0 0
2386 96 2 0.0000000000000000e+00 -3.2586764777009819e+01 -3.4816569843281549e+01 -1.0209529029036111e+02 0 0 0
1167 47 2 0.0000000000000000e+00 -1.0288438448900648e+01 -4.3315247234167686e+01 -1.0799797293514507e+02 0 0 0
1168 47 2 0.0000000000000000e+00 -1.4599171008113135e+01 -3.8541846667147567e+01 -1.0033797153221622e+02 0 0 0
3085 124 4 0.0000000000000000e+00 -2.4714150042931030e-01 -4.5629027576699492e+01 -1.0369408510825325e+02 0 0 0
1981 80 2 0.0000000000000000e+00 -1.0972719349159688e+02 -2.0957485907340974e+01 -1.0562450734715323e+02 0 0 0
1982 80 1 0.0000000000000000e+00 -1.1071312022796985e+02 -2.7470862242647456e+01 -9.8302782738858099e+01 0 0 0
1983 80 2 0.0000000000000000e+00 -1.0438985746919725e+02 -3.2531488526720487e+01 -1.0342099349507117e+02 0 0 0
1984 80 2 0.0000000000000000e+00 -9.5803134510321257e+01 -3.0950004503245427e+01 -1.0879786523838628e+02 0 0 0
3158 127 4 0.0000000000000000e+00 -6.6007137183208727e+01 -2.3703818025761276e+01 -1.0907636286137493e+02 0 0 0
3159 127 4 0.0000000000000000e+00 -6.0566593747432783e+01 -3.1649752207565783e+01 -1.0861738737423904e+02 0 0 0
2074 83 2 0.0000000000000000e+00 -6.1349719294808921e+01 -2.7081592458313224e+01 -9.7191654577170453e+01 0 0 0
2073 83 2 0.0000000000000000e+00 -5.2665850719503801e+01 -2.7596715466475409e+01 -1.0299764024104972e+02 0 0 0
2385 96 2 0.0000000000000000e+00 -4.0474484625609399e+01 -2.8951756957637947e+01 -1.0569579149990223e+02 0 0 0
2384 96 2 0.0000000000000000e+00 -3.3376075413404315e+01 -2.2000134617776791e+01 -1.0609693924847558e+02 0 0 0
1842 74 2 0.0000000000000000e+00 -5.0833503300524718e+00 -3.2714310425359841e+01 -1.0736962758565406e+02 0 0 0
1841 74 2 0.0000000000000000e+00 7.4198460839381719e-01 -2.5644202114106534e+01 -1.0332349649488800e+02 0 0 0
2723 109 4 0.0000000000000000e+00 -7.0377818099246596e+00 -1.9328389323816435e+01 -9.8077231778648283e+01 0 0 0
4477 180 4 0.0000000000000000e+00 -9.8989018898526112e+01 -1.6944954086461909e+01 -1.0603479941779257e+02 0 0 0
4476 180 3 0.0000000000000000e+00 -1.0196201458427784e+02 -1.7317360686320779e+01 -9.6589435011066684e+01 0 0 0
2064 83 2 0.0000000000000000e+00 -9.5846687893689889e+01 -6.6102744185099436e+00 -1.0895134444329230e+02 0 0 0
2063 83 1 0.0000000000000000e+00 -1.0325254922011105e+02 -8.0087795411798623e+00 -1.0234888757450904e+02 0 0 0
2704 109 4 0.0000000000000000e+00 -8.5132099043491280e+01 -1.7709976191211037e+01 -9.9506953583133821e+01 0 0 0
2705 109 4 0.0000000000000000e+00 -8.5445206093427544e+01 -1.4495227001498284e+01 -1.0906396704927833e+02 0 0 0
1418 57 2 0.0000000000000000e+00 -9.3308910520678978e+01 -7.8909375664878407e+00 -9.8720361848739770e+01 0 0 0
3996 160 4 0.0000000000000000e+00 -6.6408475632945269e+01 -1.3737760822702246e+01 -1.0461376629351282e+02 0 0 0
2170 87 2 0.0000000000000000e+00 -5.7296419751384079e+01 -1.2110459434312643e+01 -1.1001704445883074e+02 0 0 0
3995 160 4 0.0000000000000000e+00 -5.8271947843188741e+01 -1.3517239965626318e+01 -9.8008730478591644e+01 0 0 0
2383 96 2 0.0000000000000000e+00 -3.9265986352261727e+01 -1.4051742545075976e+01 -1.0358626246698938e+02 0 0 0
2382 96 1 0.0000000000000000e+00 -4.7508270703634814e+01 -9.6084424878637691e+00 -9.9378064057062161e+01 0 0 0
939 38 2 0.0000000000000000e+00 8.7034833560957470e-01 -1.5076805200133116e+01 -1.0660118183002974e+02 0 0 0
938 38 1 0.0000000000000000e+00 -7.3363637674807531e+00 -9.7350845488752569e+00 -1.0602591432498903e+02 0 0 0
2799 112 4 0.0000000000000000e+00 2.7394711672973018e+00 -7.5640550133792805e+00 -1.0063451134736485e+02 0 0 0
4750 190 3 0.0000000000000000e+00 -1.2657719117098750e+02 -3.1787273966796143e+00 -1.0927926516206331e+02 0 0 0
4749 190 4 0.0000000000000000e+00 -1.2227580760046240e+02 2.9450406743350230e+00 -1.0250794274827909e+02 0 0 0
1415 57 2 0.0000000000000000e+00 -1.1192278753216769e+02 2.2725125446113767e-01 -1.0155498298529936e+02 0 0 0
1417 57 2 0.0000000000000000e+00 -9.6974974939701767e+01 1.2807739645982306e+00 -1.0120863628641430e+02 0 0 0
1416 57 2 0.0000000000000000e+00 -1.0483332529266826e+02 5.8763222449676613e+00 -1.0521167291585617e+02 0 0 0
2706 109 4 0.0000000000000000e+00 -8.1520806166725180e+01 -5.3587667063874731e+00 -1.0626150942548091e+02 0 0 0
2707 109 3 0.0000000000000000e+00 -8.7417679566927589e+01 1.7512503150246739e+00 -1.0265198085293954e+02 0 0 0
2172 87 2 0.0000000000000000e+00 -7.0805161723488496e+01 -4.5152389896552494e+00 -1.0333538321862321e+02 0 0 0
3153 127 4 0.0000000000000000e+00 -7.6394293398045946e+01 7.5392200568833463e+00 -9.8163307868612407e+01 0 0 0
2171 87 2 0.0000000000000000e+00 -6.0907107747883153e+01 -4.1094724428877054e+00 -1.0612183391376215e+02 0 0 0
3627 146 4 0.0000000000000000e+00 -5.2910462161191482e+01 3.8830838664559137e+00 -1.0557531252889102e+02 0 0 0
937 38 2 0.0000000000000000e+00 -1.4597806166555021e+01 -2.9805670025887334e+00 -1.0716622860539633e+02 0 0 0
936 38 2 0.0000000000000000e+00 -1.5333045039188718e+01 2.4390801172143597e+00 -9.8293099856302490e+01 0 0 0
2800 112 3 0.0000000000000000e+00 -4.4047139526979020e+00 -1.1117238331461017e+00 -9.9348981103434014e+01 0 0 0
260 11 2 0.0000000000000000e+00 -1.1268759155698783e+01 -8.8405689560882777e+01 -9.2494437870511049e+01 0 0 0
259 11 2 0.0000000000000000e+00 -3.1729168809372523e+00 -9.3615608473861258e+01 -8.9979291480364978e+01 0 0 0
261 11 2 0.0000000000000000e+00 -1.4461281569770920e+01 -7.8493918651016600e+01 -9.2955350093656179e+01 0 0 0
1931 78 2 0.0000000000000000e+00 -5.0058552914823755e+00 -7.8947383463647611e+01 -8.3521248765022577e+01 0 0 0
3849 154 4 0.0000000000000000e+00 -8.0414194281058386e+01 -6.3743156180727723e+01 -8.8768332457378008e+01 0 0 0
3848 154 4 0.0000000000000000e+00 -8.2291363651708977e+01 -7.1854628097553785e+01 -8.2876125828470634e+01 0 0 0
3081 124 4 0.0000000000000000e+00 -2.8426890961441092e+01 -6.7888961795968314e+01 -9.4181775489655635e+01 0 0 0
3080 124 4 0.0000000000000000e+00 -2.9234909489368405e+01 -7.2238320566833792e+01 -8.5437996400447005e+01 0 0 0
4156 167 4 0.0000000000000000e+00 -3.4903678191427595e+01 -6.3777973882280016e+01 -8.2746601415740386e+01 0 0 0
262 11 2 0.0000000000000000e+00 -1.5672890036538876e+01 -6.8299847121615656e+01 -9.4677107861210416e+01 0 0 0
1930 78 2 0.0000000000000000e+00 -2.4125748891720664e+00 -6.9925234864785949e+01 -8.2629601374570370e+01 0 0 0