LAMMPS data file via write_data, version 5 Jun 2019, timestep = 400000000

5000 atoms
4 atom types
5295 bonds
3 bond types
4600 angles
2 angle types

-2.5000000000000000e+02 2.5000000000000000e+02 xlo xhi
-2.5000000000000000e+02 2.5000000000000000e+02 ylo yhi
-2.5000000000000000e+02 2.5000000000000000e+02 zlo zhi

Masses

1 1000
2 1000
3 1000
4 1000

Pair Coeffs # lj/cut

1 0.3 10
2 0.3 10
3 0.3 10
4 0.3 10

Bond Coeffs # harmonic

1 3 10
2 3 10
3 3 11.22

Angle Coeffs # cosine

1 2
2 2

Atoms # full

4776 192 3 0.0000000000000000e+00 -6.6191819149114565e+01 -1.8445205101189838e+01 -2.2289581693354415e+02 0 0 0
4777 192 4 0.0000000000000000e+00 -6.6455616089657553e+01 -1.9578764508227060e+01 -2.1334281606573160e+02 0 0 0
4778 192 4 0.0000000000000000e+00 -6.3140369182878366e+01 -1.7217136259027434e+01 -2.0398746595252737e+02 0 0 0
3056 123 4 0.0000000000000000e+00 -7.6343450335518796e+01 1.6402404681180130e+01 -1.9602454208335863e+02 0 0 0
402 17 2 0.0000000000000000e+00 -6.6883594590072022e+01 1.9966328557597638e+01 -1.9623070196127290e+02 0 0 0
4151 167 3 0.0000000000000000e+00 -6.4044932928231205e+01 -4.9607847854130668e+01 -1.8726803838995355e+02 0 0 0
3062 123 4 0.0000000000000000e+00 -8.4439445039199910e+01 -3.3234782754925980e+01 -1.8371112774283898e+02 0 0 0
3061 123 4 0.0000000000000000e+00 -9.0407889298132304e+01 -2.7992756035645847e+01 -1.8973793622938319e+02 0 0 0
3060 123 4 0.0000000000000000e+00 -8.4502926315996262e+01 -2.0452561027415012e+01 -1.8574753186330676e+02 0 0 0
3059 123 4 0.0000000000000000e+00 -8.2460938060889831e+01 -1.0524726603459586e+01 -1.8533190042101393e+02 0 0 0
3057 123 3 0.0000000000000000e+00 -7.8874952563103051e+01 7.5325492059374968e+00 -1.9272099991171322e+02 0 0 0
3058 123 4 0.0000000000000000e+00 -8.1394106008158133e+01 -6.7031782735214984e-01 -1.8713401455116090e+02 0 0 0
1454 59 2 0.0000000000000000e+00 -7.8085108147837104e+01 1.1640498639374622e+01 -1.8263929039564093e+02 0 0 0
1831 74 2 0.0000000000000000e+00 -7.0810412224615035e+01 1.3174475781862398e+00 -1.8457041049904868e+02 0 0 0
401 17 1 0.0000000000000000e+00 -6.8355344758074992e+01 1.1686091283816937e+01 -1.9120370882083932e+02 0 0 0
2022 81 2 0.0000000000000000e+00 -1.1754882184307137e+02 2.3108465157127171e+01 -1.8379099809074700e+02 0 0 0
2021 81 2 0.0000000000000000e+00 -1.0731302851072184e+02 2.4464529949320202e+01 -1.8421452821302120e+02 0 0 0
1843 74 2 0.0000000000000000e+00 -6.3071725351748974e+01 -4.0735901629437855e+01 -1.7423834963717394e+02 0 0 0
275 11 1 0.0000000000000000e+00 -9.3010225197936919e+01 -2.7224957884067368e+01 -1.7005856704852005e+02 0 0 0
274 11 2 0.0000000000000000e+00 -9.7329623838114387e+01 -1.7998805402420441e+01 -1.7189134793499377e+02 0 0 0
3063 123 3 0.0000000000000000e+00 -8.2891271586160883e+01 -2.8921379092972348e+01 -1.7464440429950903e+02 0 0 0
3064 123 4 0.0000000000000000e+00 -7.9260170649012153e+01 -2.2320099893281618e+01 -1.6824067446371788e+02 0 0 0
1829 74 2 0.0000000000000000e+00 -6.8044845566614754e+01 -1.6416278142295070e+01 -1.7804347676349411e+02 0 0 0
273 11 2 0.0000000000000000e+00 -8.8857365918611990e+01 -1.2876369661753426e+01 -1.7360245798636879e+02 0 0 0
272 11 2 0.0000000000000000e+00 -7.9734122459661691e+01 -1.0956701552919753e+01 -1.7116120125581108e+02 0 0 0
1830 74 2 0.0000000000000000e+00 -7.2242794193919138e+01 -7.2613966461932158e+00 -1.7925118723886982e+02 0 0 0
1455 59 2 0.0000000000000000e+00 -7.8008720356531583e+01 5.3758789773465478e+00 -1.7506768958185859e+02 0 0 0
1832 74 1 0.0000000000000000e+00 -6.8028770947572312e+01 5.3909283146433422e+00 -1.7570602535323223e+02 0 0 0
1453 59 2 0.0000000000000000e+00 -7.9884923136567849e+01 2.1748178330064437e+01 -1.8035884092447341e+02 0 0 0
4455 179 4 0.0000000000000000e+00 -7.4490301374406741e+01 1.8969970351943484e+01 -1.6897196589043230e+02 0 0 0
4456 179 4 0.0000000000000000e+00 -6.8640479421747656e+01 1.4999666920310952e+01 -1.7626566880341562e+02 0 0 0
1665 67 2 0.0000000000000000e+00 -7.2169074502834945e+01 -4.4671646228827669e+01 -1.5590334940381734e+02 0 0 0
1840 74 2 0.0000000000000000e+00 -6.1438106198432024e+01 -2.1673727711728308e+01 -1.5991981999276615e+02 0 0 0
2170 87 2 0.0000000000000000e+00 -1.1274224915795955e+02 -3.2990113977240072e+00 -1.5509903341972401e+02 0 0 0
3066 123 4 0.0000000000000000e+00 -9.3041427242653057e+01 -1.5489297361983704e+01 -1.5746532023537787e+02 0 0 0
3065 123 4 0.0000000000000000e+00 -8.4767831875150577e+01 -1.4548534341205363e+01 -1.6304398327419420e+02 0 0 0
271 11 2 0.0000000000000000e+00 -7.0203174179573494e+01 -1.1357672104729135e+01 -1.6767267015689222e+02 0 0 0
1457 59 1 0.0000000000000000e+00 -6.5245669944429139e+01 -4.2165632231159620e+00 -1.6509547155597710e+02 0 0 0
2070 83 2 0.0000000000000000e+00 -1.1286199003460027e+02 8.4383278613927555e+00 -1.5635899578496381e+02 0 0 0
4452 179 4 0.0000000000000000e+00 -9.5038463702914385e+01 9.7097194264550879e+00 -1.5884835344739940e+02 0 0 0
3627 146 4 0.0000000000000000e+00 -7.9089454701572123e+01 1.0680052302494508e+01 -1.5586661969244747e+02 0 0 0
1456 59 2 0.0000000000000000e+00 -7.4180973599112207e+01 -7.6481328225656098e-01 -1.6812116813011178e+02 0 0 0
2072 83 2 0.0000000000000000e+00 -1.2037165808395397e+02 1.8126728741383285e+01 -1.6532281524424661e+02 0 0 0
2073 83 2 0.0000000000000000e+00 -1.2607054655271969e+02 2.3899167760937964e+01 -1.5873295929552236e+02 0 0 0
2071 83 2 0.0000000000000000e+00 -1.1064232455484805e+02 1.4787830157019153e+01 -1.6414675224180763e+02 0 0 0
1054 43 2 0.0000000000000000e+00 -1.0123191488016046e+02 2.5435709757020945e+01 -1.5911736730452282e+02 0 0 0
4453 179 4 0.0000000000000000e+00 -8.6846658164706568e+01 1.4139082467406386e+01 -1.6258321746892258e+02 0 0 0
4454 179 4 0.0000000000000000e+00 -8.0183084400254856e+01 2.1142519266372663e+01 -1.6036426598116813e+02 0 0 0
3626 146 3 0.0000000000000000e+00 -7.0096954197589369e+01 1.3301952319984945e+01 -1.5847164787941730e+02 0 0 0
4160 167 4 0.0000000000000000e+00 -7.9695536042707076e+01 -7.8919112704581110e+01 -1.4149758853209232e+02 0 0 0
3998 160 4 0.0000000000000000e+00 -1.0189940467692847e+02 -4.4179997956750640e+01 -1.4797421686193741e+02 0 0 0
4000 160 3 0.0000000000000000e+00 -8.9688937315770957e+01 -5.6315025170003430e+01 -1.4843914840212790e+02 0 0 0
3999 160 4 0.0000000000000000e+00 -9.8237310464621842e+01 -5.2377351220175079e+01 -1.4400240106350168e+02 0 0 0
1663 67 1 0.0000000000000000e+00 -8.4888483219717529e+01 -4.7139985890049587e+01 -1.4476881615921664e+02 0 0 0
2400 96 1 0.0000000000000000e+00 -6.4384332793821343e+01 -5.0189680122946768e+01 -1.4422747332531915e+02 0 0 0
2399 96 2 0.0000000000000000e+00 -7.3554655475106614e+01 -4.5923863848773351e+01 -1.4490628203391890e+02 0 0 0
1984 80 2 0.0000000000000000e+00 -1.3014828039542331e+02 -3.6710909797784353e+01 -1.4977648531966756e+02 0 0 0
1985 80 2 0.0000000000000000e+00 -1.2817829643025195e+02 -4.2165028322980078e+01 -1.4169698970745009e+02 0 0 0
3997 160 4 0.0000000000000000e+00 -9.4122479339849022e+01 -3.8110881238197699e+01 -1.5010881302528367e+02 0 0 0
1664 67 2 0.0000000000000000e+00 -8.0573742272782539e+01 -4.1298580664313661e+01 -1.5260221680054636e+02 0 0 0
1666 67 2 0.0000000000000000e+00 -6.6141804855829619e+01 -3.6914287372372293e+01 -1.5347540582687779e+02 0 0 0
576 24 1 0.0000000000000000e+00 -7.4390480793645693e+01 -2.9916047494492691e+01 -1.5306748517861874e+02 0 0 0
1667 67 2 0.0000000000000000e+00 -6.4645365873421767e+01 -3.0890853463120102e+01 -1.4481092636311757e+02 0 0 0
1983 80 2 0.0000000000000000e+00 -1.3062293002387187e+02 -2.6860943767587742e+01 -1.4949570267143307e+02 0 0 0
1982 80 1 0.0000000000000000e+00 -1.3370918615385872e+02 -1.7386462333692094e+01 -1.4954057633476120e+02 0 0 0
3995 160 4 0.0000000000000000e+00 -1.0680057519219606e+02 -2.3458434961408944e+01 -1.4941294409383693e+02 0 0 0
3994 160 3 0.0000000000000000e+00 -1.1298436572011870e+02 -1.9362764272334296e+01 -1.4235078278039768e+02 0 0 0
3996 160 4 0.0000000000000000e+00 -9.8811037461966620e+01 -2.9321541679580079e+01 -1.4944391567508640e+02 0 0 0
3067 123 4 0.0000000000000000e+00 -1.0079236117407231e+02 -1.6303560880463497e+01 -1.5148464246827049e+02 0 0 0
3068 123 4 0.0000000000000000e+00 -1.0049653236247909e+02 -1.7100699090385387e+01 -1.4134283267575216e+02 0 0 0
577 24 2 0.0000000000000000e+00 -7.6293053590380211e+01 -2.6962939733712354e+01 -1.4393338301982649e+02 0 0 0
3176 128 3 0.0000000000000000e+00 -6.6202764210178117e+01 -2.1909099377620219e+01 -1.5175244050319009e+02 0 0 0
1981 80 2 0.0000000000000000e+00 -1.2904405922001851e+02 -8.7653941551919683e+00 -1.4891187442146966e+02 0 0 0
2172 87 2 0.0000000000000000e+00 -1.2089091832585652e+02 -2.1509953055739883e+00 -1.4389293907441765e+02 0 0 0
2169 87 1 0.0000000000000000e+00 -1.1138509445173099e+02 -9.1368750340623439e+00 -1.4615550475727554e+02 0 0 0
2168 87 2 0.0000000000000000e+00 -1.0259073414344149e+02 -4.7733761527562040e+00 -1.4277719044225029e+02 0 0 0
3178 128 4 0.0000000000000000e+00 -7.1482595712014316e+01 -4.5788572525226030e+00 -1.5021003236270425e+02 0 0 0
3177 128 4 0.0000000000000000e+00 -7.1400987932655724e+01 -1.4575554464158820e+01 -1.4711102038693562e+02 0 0 0
1980 80 2 0.0000000000000000e+00 -1.3278308345996305e+02 6.1994300811309189e-01 -1.5001281162800137e+02 0 0 0
1979 80 2 0.0000000000000000e+00 -1.3945563400274000e+02 3.0499378369183567e+00 -1.4245561016270815e+02 0 0 0
2075 83 1 0.0000000000000000e+00 -1.3174943193844564e+02 1.0726006764324813e+01 -1.4498119931273567e+02 0 0 0
2171 87 2 0.0000000000000000e+00 -1.2030777749864258e+02 2.7087220688370923e+00 -1.5293309530710121e+02 0 0 0
2378 96 2 0.0000000000000000e+00 -1.1672259828716200e+02 7.1278757397601415e+00 -1.4224648063002223e+02 0 0 0
2069 83 1 0.0000000000000000e+00 -1.0836517758407658e+02 4.8312518898609049e+00 -1.4833267028400198e+02 0 0 0
4451 179 3 0.0000000000000000e+00 -9.7790129013825293e+01 3.6395212946918356e+00 -1.5126774474763675e+02 0 0 0
2166 87 2 0.0000000000000000e+00 -9.4443764736575332e+01 9.9594357738882735e+00 -1.4203166924106918e+02 0 0 0
3628 146 4 0.0000000000000000e+00 -8.8162825743151799e+01 1.1683154022485036e+01 -1.5137986800618492e+02 0 0 0
3179 128 4 0.0000000000000000e+00 -7.4849115664956656e+01 4.6044017149710053e+00 -1.4783941124600662e+02 0 0 0
1836 74 2 0.0000000000000000e+00 -6.5154160951938778e+01 2.8746277970797061e+00 -1.5419218842507723e+02 0 0 0
4750 190 3 0.0000000000000000e+00 -1.4615309828203218e+02 1.8429172765247674e+01 -1.5332832894856253e+02 0 0 0
1976 80 1 0.0000000000000000e+00 -1.5057614477280313e+02 2.0179244698396651e+01 -1.4267528489799400e+02 0 0 0
2074 83 2 0.0000000000000000e+00 -1.3120375053758110e+02 1.8199627217231541e+01 -1.5191782438759105e+02 0 0 0
2379 96 2 0.0000000000000000e+00 -1.2083295527489094e+02 1.2235109675938334e+01 -1.4962221748148238e+02 0 0 0
2068 83 2 0.0000000000000000e+00 -1.0312298354516753e+02 1.3482921348897843e+01 -1.4715414796344609e+02 0 0 0
2067 83 2 0.0000000000000000e+00 -1.0495353389381731e+02 2.2829061535686701e+01 -1.4835681551124992e+02 0 0 0
3629 146 4 0.0000000000000000e+00 -9.3644218972081873e+01 1.9903740983363313e+01 -1.4810971276486637e+02 0 0 0
3181 128 4 0.0000000000000000e+00 -8.0826464819492898e+01 2.2844876482308099e+01 -1.5007300265873127e+02 0 0 0
3180 128 4 0.0000000000000000e+00 -7.5773538454687795e+01 1.4284895956413026e+01 -1.4742014499167087e+02 0 0 0
2250 90 1 0.0000000000000000e+00 -6.5978708119381196e+01 1.6624336640851372e+01 -1.4852015690036205e+02 0 0 0
4161 167 4 0.0000000000000000e+00 -8.6334956052457571e+01 -7.7132827348470755e+01 -1.3443899822755509e+02 0 0 0
4949 198 4 0.0000000000000000e+00 -6.4346952961762440e+01 -7.5408726575395804e+01 -1.3495720307561788e+02 0 0 0
4950 198 3 0.0000000000000000e+00 -7.0879430537034764e+01 -7.2698926669473124e+01 -1.2793243573262062e+02 0 0 0
4159 167 4 0.0000000000000000e+00 -7.2375784745464529e+01 -7.2042832964675455e+01 -1.3914029687594365e+02 0 0 0
2395 96 2 0.0000000000000000e+00 -1.0393249484092318e+02 -6.4112644260964501e+01 -1.3169433345161534e+02 0 0 0
2396 96 2 0.0000000000000000e+00 -9.3342826423442048e+01 -6.3434818929972977e+01 -1.3367415597859193e+02 0 0 0
2397 96 2 0.0000000000000000e+00 -8.5012279549941681e+01 -5.7319453965006851e+01 -1.3400336695718354e+02 0 0 0
4158 167 4 0.0000000000000000e+00 -6.5892869262816163e+01 -6.4348229322012898e+01 -1.3789950074244533e+02 0 0 0
262 11 2 0.0000000000000000e+00 -6.8812091063219910e+01 -5.8159022101381467e+01 -1.2991321838722882e+02 0 0 0
1661 67 2 0.0000000000000000e+00 -9.8390132372711236e+01 -5.4545083201086108e+01 -1.3218076373053609e+02 0 0 0
1662 67 2 0.0000000000000000e+00 -9.1284642456618798e+01 -5.0007652953853736e+01 -1.3716980569253636e+02 0 0 0
2398 96 2 0.0000000000000000e+00 -7.7071475593855013e+01 -5.3258303402442344e+01 -1.3844541016568940e+02 0 0 0
3073 123 4 0.0000000000000000e+00 -1.3153118864902842e+02 -3.0648349710571722e+01 -1.3297058100290198e+02 0 0 0
2175 87 1 0.0000000000000000e+00 -1.2193531834237248e+02 -3.1494603716838892e+01 -1.3889333823729748e+02 0 0 0
1986 80 2 0.0000000000000000e+00 -1.1971829953018076e+02 -4.1979370600728153e+01 -1.3524727128692416e+02 0 0 0
1987 80 2 0.0000000000000000e+00 -1.1158381854499673e+02 -3.9072917690907438e+01 -1.2899310045180263e+02 0 0 0
3992 160 4 0.0000000000000000e+00 -1.0590040289295342e+02 -2.9815459601836967e+01 -1.3055730015303951e+02 0 0 0
3991 160 4 0.0000000000000000e+00 -9.5906405766852515e+01 -3.4015080158550596e+01 -1.3043074038797687e+02 0 0 0
3990 160 4 0.0000000000000000e+00 -8.9601451425056808e+01 -4.1818022042121754e+01 -1.2758819618099260e+02 0 0 0
3074 123 4 0.0000000000000000e+00 -1.3440038058832820e+02 -2.3345971090984548e+01 -1.3924050185849651e+02 0 0 0
2174 87 2 0.0000000000000000e+00 -1.2298456241994722e+02 -2.1388796975519352e+01 -1.3798342563388533e+02 0 0 0
3072 123 4 0.0000000000000000e+00 -1.2215587724697119e+02 -2.8818492169208199e+01 -1.2933003814104023e+02 0 0 0
3993 160 4 0.0000000000000000e+00 -1.1342358917900482e+02 -2.5376297301180436e+01 -1.3432371207678790e+02 0 0 0
3070 123 4 0.0000000000000000e+00 -1.0766769079073316e+02 -1.9161301518474144e+01 -1.2778547942053602e+02 0 0 0
3069 123 3 0.0000000000000000e+00 -9.8858796955815194e+01 -1.8571164656201141e+01 -1.3150368224450074e+02 0 0 0
579 24 2 0.0000000000000000e+00 -8.0737756952519078e+01 -2.0701020458802144e+01 -1.3041015179294629e+02 0 0 0
578 24 2 0.0000000000000000e+00 -7.4312738522264738e+01 -2.7089739245202267e+01 -1.3381681368051341e+02 0 0 0
2717 109 4 0.0000000000000000e+00 -6.9760095790897253e+01 -1.8144144125539889e+01 -1.2744471786280177e+02 0 0 0
2716 109 4 0.0000000000000000e+00 -6.8037844025387969e+01 -1.6569607406789999e+01 -1.3713893523693264e+02 0 0 0
3075 123 3 0.0000000000000000e+00 -1.3920119454921826e+02 -1.5243630210524039e+01 -1.3998966600848001e+02 0 0 0
3165 127 4 0.0000000000000000e+00 -1.4046986704515965e+02 -5.9873283490646223e+00 -1.3232496199373304e+02 0 0 0
3164 127 4 0.0000000000000000e+00 -1.3263924184358504e+02 -4.7552301051107406e+00 -1.3878050232591278e+02 0 0 0
2173 87 2 0.0000000000000000e+00 -1.2056159447500052e+02 -1.1620956084097344e+01 -1.3973774225772954e+02 0 0 0
584 24 2 0.0000000000000000e+00 -1.2340674150461240e+02 -4.7532097075240385e+00 -1.2874582664903775e+02 0 0 0
583 24 2 0.0000000000000000e+00 -1.1491281216468440e+02 -9.5551154738986614e+00 -1.3013049718070744e+02 0 0 0
582 24 1 0.0000000000000000e+00 -1.0547454048094441e+02 -9.2024194991876840e+00 -1.3220050561468966e+02 0 0 0
581 24 2 0.0000000000000000e+00 -9.5655467785185721e+01 -9.8078741237966582e+00 -1.3541496168215269e+02 0 0 0
580 24 2 0.0000000000000000e+00 -8.7837273613169458e+01 -1.4887714253805822e+01 -1.3501221490199063e+02 0 0 0
2715 109 4 0.0000000000000000e+00 -7.3661317922877927e+01 -8.3335931492553659e+00 -1.3554411277656385e+02 0 0 0
1978 80 2 0.0000000000000000e+00 -1.4090729247409422e+02 9.9844318297035688e+00 -1.3490290891005577e+02 0 0 0
3163 127 3 0.0000000000000000e+00 -1.2792160596532266e+02 3.2738505449596871e+00 -1.3688242170306364e+02 0 0 0
3162 127 4 0.0000000000000000e+00 -1.1989169282386234e+02 5.1196673182931214e+00 -1.3108303381887777e+02 0 0 0
2377 96 2 0.0000000000000000e+00 -1.1222298814113338e+02 -1.2725339418625703e+00 -1.3916761881824183e+02 0 0 0
2376 96 1 0.0000000000000000e+00 -1.0418240612858914e+02 3.8355087911678969e+00 -1.3701498970813535e+02 0 0 0
3161 127 4 0.0000000000000000e+00 -1.1181554777881151e+02 9.8130522577259676e+00 -1.2787878839141970e+02 0 0 0
2167 87 2 0.0000000000000000e+00 -9.3937759631125431e+01 -9.3329226562658373e-04 -1.4045227356037776e+02 0 0 0
3151 127 3 0.0000000000000000e+00 -9.5056976519984389e+01 3.3511645030191244e+00 -1.3012912497899995e+02 0 0 0
3152 127 4 0.0000000000000000e+00 -8.5614945555666992e+01 8.8619147471662330e-01 -1.3047418498825141e+02 0 0 0
2162 87 2 0.0000000000000000e+00 -6.7351654859038987e+01 7.1412197929230592e+00 -1.4031843361949865e+02 0 0 0
2714 109 4 0.0000000000000000e+00 -6.8023944701611740e+01 -2.9324917079227447e-01 -1.3308169020406081e+02 0 0 0
1977 80 2 0.0000000000000000e+00 -1.4336209150498209e+02 1.9539470873289176e+01 -1.3589217718528135e+02 0 0 0
2381 96 2 0.0000000000000000e+00 -1.2803508214074060e+02 1.5943298899797691e+01 -1.3152246301417645e+02 0 0 0
2380 96 2 0.0000000000000000e+00 -1.2193386231607893e+02 1.5092101223679551e+01 -1.4000333799420181e+02 0 0 0
3630 146 4 0.0000000000000000e+00 -8.9903284352059416e+01 2.4918926589983798e+01 -1.4043892037677458e+02 0 0 0
2066 83 2 0.0000000000000000e+00 -1.0019568003230738e+02 2.4244651306159607e+01 -1.3919566559103274e+02 0 0 0
2165 87 2 0.0000000000000000e+00 -9.3559172930636123e+01 1.6025636573253731e+01 -1.3377235557346114e+02 0 0 0
2164 87 2 0.0000000000000000e+00 -8.3832696044897574e+01 1.4492842511679195e+01 -1.3331833535391598e+02 0 0 0
3350 134 3 0.0000000000000000e+00 -7.8612218017236984e+01 2.3267197711471674e+01 -1.3901724624848362e+02 0 0 0
662 27 2 0.0000000000000000e+00 -6.7029454062632496e+01 2.2975200605010642e+01 -1.4056383373461816e+02 0 0 0
2163 87 1 0.0000000000000000e+00 -7.3868319792166233e+01 1.3665177176531616e+01 -1.3524695508529476e+02 0 0 0
499 20 2 0.0000000000000000e+00 -6.8765903189160099e+01 2.3382317786466647e+01 -1.3080665351732159e+02 0 0 0
498 20 2 0.0000000000000000e+00 -6.6835564079435386e+01 1.4062340654766627e+01 -1.2738228317279226e+02 0 0 0
4163 167 3 0.0000000000000000e+00 -8.4266201100544322e+01 -7.7518240579777071e+01 -1.1450972528847093e+02 0 0 0
4162 167 4 0.0000000000000000e+00 -8.4857072256017091e+01 -7.6163055847703689e+01 -1.2455196975456077e+02 0 0 0
257 11 1 0.0000000000000000e+00 -6.9156578216982382e+01 -8.2831907034443645e+01 -1.2520195714711261e+02 0 0 0
258 11 2 0.0000000000000000e+00 -7.2699360180272492e+01 -7.7449377402174065e+01 -1.1838140982397621e+02 0 0 0
2393 96 2 0.0000000000000000e+00 -1.1764482254115809e+02 -5.8292703241782228e+01 -1.2139369804616423e+02 0 0 0
2394 96 1 0.0000000000000000e+00 -1.1101691852310006e+02 -6.4882551657179675e+01 -1.2486574787756419e+02 0 0 0
3850 154 3 0.0000000000000000e+00 -1.0533350738708532e+02 -6.8718578267504199e+01 -1.1621551359756930e+02 0 0 0
261 11 2 0.0000000000000000e+00 -7.6645297084978566e+01 -6.3051009312960758e+01 -1.2571505819596841e+02 0 0 0
260 11 2 0.0000000000000000e+00 -8.0298097185703654e+01 -6.4880631750920188e+01 -1.1665408169397948e+02 0 0 0
1934 78 2 0.0000000000000000e+00 -6.2712227805786220e+01 -6.5781437415838113e+01 -1.2378396563820030e+02 0 0 0
3170 127 4 0.0000000000000000e+00 -1.4482000069697870e+02 -4.4501329826121228e+01 -1.1389715224936411e+02 0 0 0
2392 96 2 0.0000000000000000e+00 -1.2278357985004862e+02 -5.0396883528272390e+01 -1.1792836011074191e+02 0 0 0
1659 67 2 0.0000000000000000e+00 -1.1133646930518216e+02 -4.6933033525921196e+01 -1.1783135753067891e+02 0 0 0
1660 67 2 0.0000000000000000e+00 -1.0451572746701707e+02 -5.1381436751759374e+01 -1.2413234772842065e+02 0 0 0
3082 124 3 0.0000000000000000e+00 -6.6782274356681640e+01 -5.0786453353524209e+01 -1.1991439314446512e+02 0 0 0
3169 127 3 0.0000000000000000e+00 -1.4618439380632188e+02 -3.4658510601713687e+01 -1.1462556428852101e+02 0 0 0
3172 127 4 0.0000000000000000e+00 -1.2899704105971219e+02 -4.0193396303808910e+01 -1.1424456072465766e+02 0 0 0
2390 96 2 0.0000000000000000e+00 -1.2170273659354268e+02 -3.2160736278379744e+01 -1.2049004920541744e+02 0 0 0
2391 96 2 0.0000000000000000e+00 -1.2058844580897178e+02 -4.1969653179879238e+01 -1.2313034191738292e+02 0 0 0
1988 80 1 0.0000000000000000e+00 -1.0406493135593286e+02 -3.6970245270266972e+01 -1.2235051803697731e+02 0 0 0
1989 80 2 0.0000000000000000e+00 -9.5215280917823407e+01 -3.3208161938267736e+01 -1.1880142659548076e+02 0 0 0
1990 80 2 0.0000000000000000e+00 -8.6212591154898078e+01 -3.1481453395045815e+01 -1.1392370232732409e+02 0 0 0
3989 160 4 0.0000000000000000e+00 -8.5157996514319692e+01 -4.0910819554925553e+01 -1.1832070235676291e+02 0 0 0
587 24 2 0.0000000000000000e+00 -1.3984674482073746e+02 -2.3933613732453839e+01 -1.1808359745349937e+02 0 0 0
586 24 2 0.0000000000000000e+00 -1.3787554729115010e+02 -1.6026567498809182e+01 -1.2427744344055694e+02 0 0 0
3071 123 4 0.0000000000000000e+00 -1.1714784738668448e+02 -2.1000754360756222e+01 -1.2518300956650738e+02 0 0 0
2389 96 2 0.0000000000000000e+00 -1.2472019794257851e+02 -2.2334363628455872e+01 -1.2003815175696965e+02 0 0 0
4200 168 3 0.0000000000000000e+00 -1.1163989165666987e+02 -2.8920343985069188e+01 -1.1940482477175939e+02 0 0 0
2056 83 2 0.0000000000000000e+00 -9.6183078492809955e+01 -1.6862258373294512e+01 -1.1948710518543447e+02 0 0 0
2718 109 4 0.0000000000000000e+00 -7.2650844441863455e+01 -2.2435676607970830e+01 -1.1842881050170385e+02 0 0 0
3167 127 4 0.0000000000000000e+00 -1.4705225934045637e+02 -1.5043628019467111e+01 -1.1659983260126495e+02 0 0 0
3166 127 4 0.0000000000000000e+00 -1.4340439568640318e+02 -8.2623722736740230e+00 -1.2334534028545301e+02 0 0 0
585 24 2 0.0000000000000000e+00 -1.3285634954155603e+02 -7.7256847120398646e+00 -1.2568703222566961e+02 0 0 0
2388 96 1 0.0000000000000000e+00 -1.1855470443506196e+02 -1.4806921207875501e+01 -1.1752886754426193e+02 0 0 0
2387 96 2 0.0000000000000000e+00 -1.1076246770785531e+02 -9.4155618513297270e+00 -1.1472194441382817e+02 0 0 0
2057 83 1 0.0000000000000000e+00 -1.0006568532359717e+02 -7.9805093585474784e+00 -1.2318853748468065e+02 0 0 0
3157 127 3 0.0000000000000000e+00 -9.2812714941058047e+01 -5.2334601725242660e+00 -1.1542708578216430e+02 0 0 0
3153 127 4 0.0000000000000000e+00 -8.3842977757287628e+01 -5.1036084268729027e+00 -1.2232252571509206e+02 0 0 0
3154 127 4 0.0000000000000000e+00 -7.4981365311347119e+01 -8.1589858357763081e+00 -1.2465530787273390e+02 0 0 0
3155 127 4 0.0000000000000000e+00 -7.5573806836535923e+01 -1.1829889882780495e+01 -1.1471143586947360e+02 0 0 0
4876 196 3 0.0000000000000000e+00 -6.4821615768588259e+01 -9.2973784335863741e+00 -1.2597694132637608e+02 0 0 0
2382 96 1 0.0000000000000000e+00 -1.3068215328281821e+02 8.5624317819023066e+00 -1.2522835644791627e+02 0 0 0
2383 96 2 0.0000000000000000e+00 -1.2458240781110722e+02 5.9095918584700087e+00 -1.1692619793567594e+02 0 0 0
2058 83 2 0.0000000000000000e+00 -1.0522438060582640e+02 7.0536638746206315e-01 -1.2201080629476623e+02 0 0 0
2059 83 2 0.0000000000000000e+00 -1.0939848081292173e+02 8.6611494214488580e+00 -1.1797917650013399e+02 0 0 0
3159 127 4 0.0000000000000000e+00 -9.9585414301657281e+01 1.0180112901137452e+01 -1.2196346621363276e+02 0 0 0
3158 127 4 0.0000000000000000e+00 -9.1666942640251506e+01 4.9891886333536988e+00 -1.1754532245544608e+02 0 0 0
2712 109 4 0.0000000000000000e+00 -8.1071456390260224e+01 7.8792256424686133e+00 -1.2372449630580316e+02 0 0 0
4518 181 4 0.0000000000000000e+00 -8.2433771822908511e+01 6.7846733318140162e-01 -1.1450677061641051e+02 0 0 0
2713 109 3 0.0000000000000000e+00 -7.1026305046160985e+01 6.3441499413242086e+00 -1.2643743153893826e+02 0 0 0
2051 83 1 0.0000000000000000e+00 -7.1190205360106333e+01 -1.8012306828945418e-01 -1.1757165209627510e+02 0 0 0
4878 196 4 0.0000000000000000e+00 -6.2414358248929013e+01 7.2136017773722134e+00 -1.1513601865162239e+02 0 0 0
2701 109 3 0.0000000000000000e+00 -1.3856874843527521e+02 1.6718060734691981e+01 -1.2435797779084278e+02 0 0 0
2702 109 4 0.0000000000000000e+00 -1.2990303062848633e+02 2.2185895508697964e+01 -1.2434570010385811e+02 0 0 0
2703 109 4 0.0000000000000000e+00 -1.2070025368429474e+02 2.5350643327539121e+01 -1.2079136004382228e+02 0 0 0
3160 127 4 0.0000000000000000e+00 -1.0583968710842973e+02 1.7721655742016093e+01 -1.2536733366415123e+02 0 0 0
1706 69 2 0.0000000000000000e+00 -1.0281126292037445e+02 2.0280944711463988e+01 -1.1375406340466105e+02 0 0 0
2710 109 4 0.0000000000000000e+00 -9.1452572611094567e+01 2.3780099457248426e+01 -1.1965926241831738e+02 0 0 0
2711 109 4 0.0000000000000000e+00 -8.7868101137979806e+01 1.4499918918026156e+01 -1.2197790412016217e+02 0 0 0
497 20 2 0.0000000000000000e+00 -6.6065879925530325e+01 1.6906631848405830e+01 -1.1802331517936936e+02 0 0 0
1651 67 1 0.0000000000000000e+00 -9.0281130520997252e+01 -7.1249289018155977e+01 -1.0734630815142876e+02 0 0 0
4164 167 4 0.0000000000000000e+00 -7.8706609735413167e+01 -8.3610276490699860e+01 -1.0855752644610372e+02 0 0 0
259 11 2 0.0000000000000000e+00 -7.5053354410144806e+01 -7.1323451040992154e+01 -1.1121001065628795e+02 0 0 0
4165 167 4 0.0000000000000000e+00 -7.0278298373136764e+01 -8.2084287859303274e+01 -1.0221508789264232e+02 0 0 0
3848 154 4 0.0000000000000000e+00 -1.2174583278114103e+02 -5.7780294678270849e+01 -1.1192999676712670e+02 0 0 0
3849 154 4 0.0000000000000000e+00 -1.1317079514610832e+02 -6.3516258660446610e+01 -1.1244709951486342e+02 0 0 0
1652 67 2 0.0000000000000000e+00 -9.4729564448505698e+01 -6.4005885919071304e+01 -1.0249503860684580e+02 0 0 0
4385 176 4 0.0000000000000000e+00 -8.0916261298985503e+01 -6.9083908685048954e+01 -1.0420650613449527e+02 0 0 0
3983 160 4 0.0000000000000000e+00 -6.5700348150506855e+01 -6.9259753733462475e+01 -1.0314251266955213e+02 0 0 0
4386 176 4 0.0000000000000000e+00 -7.3514419331742857e+01 -6.1987404358727844e+01 -1.0617156890672803e+02 0 0 0
3847 154 4 0.0000000000000000e+00 -1.3137064048818431e+02 -5.5805985868646879e+01 -1.0840542697539580e+02 0 0 0
3171 127 4 0.0000000000000000e+00 -1.3589361422867412e+02 -4.6619031523756874e+01 -1.1072303236083472e+02 0 0 0
1658 67 2 0.0000000000000000e+00 -1.1863624093085294e+02 -4.3767800054346736e+01 -1.1108713593967391e+02 0 0 0
591 24 2 0.0000000000000000e+00 -1.1582124835754746e+02 -4.7718588740167498e+01 -1.0271627562892937e+02 0 0 0
590 24 2 0.0000000000000000e+00 -1.2510202817593510e+02 -4.4353930082177740e+01 -1.0261836836865245e+02 0 0 0
592 24 2 0.0000000000000000e+00 -1.0554884935733786e+02 -4.8984772403395340e+01 -1.0314841573064733e+02 0 0 0
3079 124 4 0.0000000000000000e+00 -9.2188872100926289e+01 -4.6854373347050313e+01 -1.1034702063423245e+02 0 0 0
3080 124 4 0.0000000000000000e+00 -8.3005804148205442e+01 -5.0436891119565466e+01 -1.1280716274573243e+02 0 0 0
3987 160 4 0.0000000000000000e+00 -8.3734766907699068e+01 -4.6750371911435799e+01 -1.0321024212527423e+02 0 0 0
4388 176 3 0.0000000000000000e+00 -6.1967702904754752e+01 -4.6528018392716923e+01 -1.0148725870085163e+02 0 0 0
3081 124 4 0.0000000000000000e+00 -7.2723676416156252e+01 -5.1788494972321359e+01 -1.1187831723746875e+02 0 0 0
4387 176 4 0.0000000000000000e+00 -6.5727716601609558e+01 -5.5202546893180816e+01 -1.0535424701442747e+02 0 0 0
589 24 2 0.0000000000000000e+00 -1.3129749051696888e+02 -3.6506328478250111e+01 -1.0490031780035886e+02 0 0 0
588 24 1 0.0000000000000000e+00 -1.3654938679543139e+02 -3.0744480868576819e+01 -1.1207102880091126e+02 0 0 0
3173 127 4 0.0000000000000000e+00 -1.2451497580993852e+02 -3.2302517892038331e+01 -1.1084043702287990e+02 0 0 0
1657 67 1 0.0000000000000000e+00 -1.1636076713425203e+02 -3.6907005242353506e+01 -1.0457047258105673e+02 0 0 0
3077 124 4 0.0000000000000000e+00 -1.0653085880322020e+02 -3.5142975945935497e+01 -1.0447211971429627e+02 0 0 0
4199 168 4 0.0000000000000000e+00 -1.0378729980980050e+02 -2.9884139152940694e+01 -1.1290507571453109e+02 0 0 0
3078 124 4 0.0000000000000000e+00 -9.9515177643326041e+01 -3.9732068342372422e+01 -1.1025486005474697e+02 0 0 0
3988 160 3 0.0000000000000000e+00 -8.0479256321205867e+01 -4.0025157803798287e+01 -1.0989470422932986e+02 0 0 0
144 6 1 0.0000000000000000e+00 -7.6984748664421431e+01 -3.2075704794845294e+01 -1.0222980968742372e+02 0 0 0
143 6 2 0.0000000000000000e+00 -8.6554245876469480e+01 -3.4575235042182776e+01 -1.0375505577337869e+02 0 0 0
1156 47 2 0.0000000000000000e+00 -6.8365459582570026e+01 -3.7460399168872371e+01 -1.0231841814632108e+02 0 0 0
1157 47 1 0.0000000000000000e+00 -6.2507418382506827e+01 -3.9634720715858599e+01 -1.1089779435019025e+02 0 0 0
3168 127 4 0.0000000000000000e+00 -1.4811958209260530e+02 -2.4776562010082714e+01 -1.1272898520423115e+02 0 0 0
3174 127 4 0.0000000000000000e+00 -1.1780612404402314e+02 -2.4935077821741420e+01 -1.1177265029570266e+02 0 0 0
3175 127 3 0.0000000000000000e+00 -1.1226231475287678e+02 -1.7610937465265469e+01 -1.0834374902858156e+02 0 0 0
3076 124 3 0.0000000000000000e+00 -1.1160522683640217e+02 -2.7110861790587656e+01 -1.0233664538160269e+02 0 0 0
4198 168 4 0.0000000000000000e+00 -9.9344321994407949e+01 -2.4564880001797874e+01 -1.0531501958055733e+02 0 0 0
2055 83 2 0.0000000000000000e+00 -9.4023683593736280e+01 -1.6448834297421769e+01 -1.0937007865495980e+02 0 0 0
1991 80 2 0.0000000000000000e+00 -7.9037568037719495e+01 -2.4253546195080723e+01 -1.1216396906862282e+02 0 0 0
142 6 2 0.0000000000000000e+00 -8.8051714798611201e+01 -2.4310975974991614e+01 -1.0311625362241018e+02 0 0 0
1992 80 2 0.0000000000000000e+00 -8.0361172179951993e+01 -1.7220674765479036e+01 -1.0570390246959620e+02 0 0 0
2719 109 3 0.0000000000000000e+00 -6.5135120247508254e+01 -2.6275983693487483e+01 -1.1232618504108804e+02 0 0 0