LAMMPS data file via write_data, version 5 Jun 2019, timestep = 400000000

5000 atoms
4 atom types
5294 bonds
3 bond types
4600 angles
2 angle types

-2.5000000000000000e+02 2.5000000000000000e+02 xlo xhi
-2.5000000000000000e+02 2.5000000000000000e+02 ylo yhi
-2.5000000000000000e+02 2.5000000000000000e+02 zlo zhi

Masses

1 1000
2 1000
3 1000
4 1000

Pair Coeffs # lj/cut

1 0.3 10
2 0.3 10
3 0.3 10
4 0.3 10

Bond Coeffs # harmonic

1 3 10
2 3 10
3 3 11.22

Angle Coeffs # cosine

1 2
2 2

Atoms # full

3065 123 4 0.0000000000000000e+00 -4.8531916329833514e+01 -3.7292701975776190e+01 -1.6691089595359023e+02 0 0 0
4451 179 3 0.0000000000000000e+00 -5.5451451022221164e+01 -1.9482801454867150e+01 -1.6577316596943663e+02 0 0 0
3064 123 4 0.0000000000000000e+00 -4.5506259588731773e+01 -2.7626085147205472e+01 -1.6951207941766907e+02 0 0 0
3063 123 3 0.0000000000000000e+00 -4.3141935387308585e+01 -2.0791703003436382e+01 -1.7608338186378631e+02 0 0 0
275 11 1 0.0000000000000000e+00 -3.1807172445064172e+01 -1.8400828305062429e+01 -1.7596973445243256e+02 0 0 0
2068 83 2 0.0000000000000000e+00 -7.1454378693781635e+01 -1.2127857153728234e+01 -1.6921246597013956e+02 0 0 0
2067 83 2 0.0000000000000000e+00 -6.4000295979499498e+01 -8.7139153429099014e+00 -1.7557840447083706e+02 0 0 0
3062 123 4 0.0000000000000000e+00 -4.4657326590262500e+01 -1.0293183513556746e+01 -1.7717538980337127e+02 0 0 0
274 11 2 0.0000000000000000e+00 -3.2712754860979089e+01 -1.3732477155514918e+01 -1.6737829902115041e+02 0 0 0
4461 179 4 0.0000000000000000e+00 -2.0404541858790569e+01 -1.6487941230898493e+01 -1.6762584950813590e+02 0 0 0
4462 179 4 0.0000000000000000e+00 -1.5683566913441418e+01 -7.8884766137181792e+00 -1.7066401780947959e+02 0 0 0
4152 167 4 0.0000000000000000e+00 -5.0154852713375291e+01 -5.3245924121215666e+01 -1.5209811888196373e+02 0 0 0
4777 192 4 0.0000000000000000e+00 -2.1255363884415019e+01 -4.6651982386020968e+01 -1.5440047644530628e+02 0 0 0
1983 80 2 0.0000000000000000e+00 -7.2599299620808210e+01 -3.4168021019105041e+01 -1.5269443946435510e+02 0 0 0
3066 123 4 0.0000000000000000e+00 -5.3335971681847113e+01 -3.9216132465750718e+01 -1.5791666435449758e+02 0 0 0
3067 123 4 0.0000000000000000e+00 -6.0509125914045505e+01 -3.4569277418371705e+01 -1.5300431020018621e+02 0 0 0
4151 167 3 0.0000000000000000e+00 -4.5553577870199611e+01 -4.4575940365055914e+01 -1.5416690549490625e+02 0 0 0
4776 192 3 0.0000000000000000e+00 -2.6871482134259214e+01 -4.1582911988228140e+01 -1.6084880581444335e+02 0 0 0
1850 74 1 0.0000000000000000e+00 -3.2806700194572592e+01 -4.1971686022928971e+01 -1.5162629187378636e+02 0 0 0
4459 179 4 0.0000000000000000e+00 -1.6273095305148225e+01 -3.3224291767447596e+01 -1.5711698761101647e+02 0 0 0
1981 80 2 0.0000000000000000e+00 -8.1992996402911842e+01 -1.8031624815171416e+01 -1.5426049982398723e+02 0 0 0
2069 83 1 0.0000000000000000e+00 -6.6254212178709736e+01 -1.8724567427483532e+01 -1.6366469425341069e+02 0 0 0
2070 83 2 0.0000000000000000e+00 -6.5260410954823499e+01 -2.4172699799422677e+01 -1.5538850622630412e+02 0 0 0
272 11 2 0.0000000000000000e+00 -4.3209917004660049e+01 -2.4005181766873047e+01 -1.5376761681544414e+02 0 0 0
273 11 2 0.0000000000000000e+00 -3.8234704304919347e+01 -1.9290209216358043e+01 -1.6103345461993516e+02 0 0 0
4460 179 4 0.0000000000000000e+00 -1.7799306608440514e+01 -2.4412803741632455e+01 -1.6122704043963211e+02 0 0 0
1979 80 2 0.0000000000000000e+00 -1.0026837609271153e+02 -1.0358567344800070e+01 -1.5419234280436925e+02 0 0 0
1980 80 2 0.0000000000000000e+00 -9.0361170853979033e+01 -1.3044839100764367e+01 -1.5550302012569918e+02 0 0 0
4452 179 4 0.0000000000000000e+00 -5.3351003504671340e+01 -1.6242113036952837e+01 -1.5653233630985321e+02 0 0 0
4454 179 4 0.0000000000000000e+00 -3.6074958125444013e+01 -1.3051872177927814e+01 -1.5139435571515037e+02 0 0 0
4153 167 4 0.0000000000000000e+00 -5.6906890364079189e+01 -6.0203980760918178e+01 -1.4755000740072208e+02 0 0 0
1846 74 2 0.0000000000000000e+00 -4.8943633927917929e+01 -5.9971027795242073e+01 -1.3927043537669775e+02 0 0 0
1847 74 2 0.0000000000000000e+00 -4.2057198696122889e+01 -6.3079505293994721e+01 -1.4658288409590938e+02 0 0 0
4154 167 4 0.0000000000000000e+00 -6.5042019722544325e+01 -5.5501564553811576e+01 -1.4310970775146109e+02 0 0 0
1985 80 2 0.0000000000000000e+00 -5.8915631966160042e+01 -4.5739792609127470e+01 -1.4398428624627732e+02 0 0 0
1845 74 2 0.0000000000000000e+00 -5.0234804129187616e+01 -5.0582016633368553e+01 -1.4225069211174420e+02 0 0 0
1848 74 2 0.0000000000000000e+00 -3.8733887047664155e+01 -5.3387532950763529e+01 -1.4712146982507130e+02 0 0 0
1849 74 2 0.0000000000000000e+00 -2.9155155214459128e+01 -4.9554142184538989e+01 -1.4579682664067263e+02 0 0 0
4778 192 4 0.0000000000000000e+00 -1.2724759191005415e+01 -4.5279245132535777e+01 -1.4942105479558873e+02 0 0 0
1984 80 2 0.0000000000000000e+00 -6.7039502756731522e+01 -4.2266381647696328e+01 -1.4916637986494678e+02 0 0 0
3069 123 3 0.0000000000000000e+00 -6.9662823802318400e+01 -3.5933736903564878e+01 -1.3799123312803479e+02 0 0 0
3070 123 4 0.0000000000000000e+00 -7.7142468618853727e+01 -4.2064593809688667e+01 -1.3906593407885831e+02 0 0 0
1986 80 2 0.0000000000000000e+00 -5.5652716893227108e+01 -3.7948602136560126e+01 -1.3912372903076061e+02 0 0 0
1843 74 2 0.0000000000000000e+00 -4.9034930253340974e+01 -3.1870322851600516e+01 -1.4681642949639829e+02 0 0 0
1844 74 1 0.0000000000000000e+00 -4.7067206137905004e+01 -4.0984548759168518e+01 -1.4361371677976996e+02 0 0 0
268 11 2 0.0000000000000000e+00 -3.6728875236689568e+01 -4.0601226710567154e+01 -1.4015438891064392e+02 0 0 0
4458 179 4 0.0000000000000000e+00 -1.3489931180769762e+01 -3.4933085596365075e+01 -1.4771317676919713e+02 0 0 0
3075 123 3 0.0000000000000000e+00 -8.1201083571298980e+01 -2.3748743902754946e+01 -1.3914814116983140e+02 0 0 0
1982 80 1 0.0000000000000000e+00 -7.7878833594472766e+01 -2.6017449208440706e+01 -1.4964900280053141e+02 0 0 0
3068 123 4 0.0000000000000000e+00 -6.6299853812745894e+01 -3.0473825073695256e+01 -1.4539119248978099e+02 0 0 0
2071 83 2 0.0000000000000000e+00 -5.9212010686156241e+01 -2.2797414417735709e+01 -1.4803432847253765e+02 0 0 0
580 24 2 0.0000000000000000e+00 -5.4843563189065364e+01 -2.6617223134768867e+01 -1.3834814214788867e+02 0 0 0
1842 74 2 0.0000000000000000e+00 -4.6229947998900620e+01 -2.2661919016486287e+01 -1.4329831373930895e+02 0 0 0
271 11 2 0.0000000000000000e+00 -3.5015396249167054e+01 -2.1504954686010350e+01 -1.4779439709316310e+02 0 0 0
270 11 2 0.0000000000000000e+00 -2.7605064007081157e+01 -2.4517133342413331e+01 -1.4137681918228168e+02 0 0 0
4457 179 3 0.0000000000000000e+00 -1.4277963680344371e+01 -2.5145931349981009e+01 -1.4610469700565702e+02 0 0 0
1978 80 2 0.0000000000000000e+00 -1.0307076300979584e+02 -4.8926675169344520e+00 -1.4597305247661447e+02 0 0 0
585 24 2 0.0000000000000000e+00 -8.9618719087044767e+01 -1.4564159292144430e+01 -1.4206364264110496e+02 0 0 0
584 24 2 0.0000000000000000e+00 -8.1323432417078934e+01 -9.5303025552970286e+00 -1.4168647762745277e+02 0 0 0
583 24 2 0.0000000000000000e+00 -7.4865949996945588e+01 -1.7288434444442291e+01 -1.3877429260202686e+02 0 0 0
2072 83 2 0.0000000000000000e+00 -6.3286922170903829e+01 -1.6932329991370917e+01 -1.4074557739839884e+02 0 0 0
579 24 2 0.0000000000000000e+00 -5.3017035931496984e+01 -1.6829554165924453e+01 -1.3918718268470985e+02 0 0 0
4453 179 4 0.0000000000000000e+00 -4.5733351948528465e+01 -1.4702062648756222e+01 -1.5016182540562207e+02 0 0 0
578 24 2 0.0000000000000000e+00 -5.0867391359261440e+01 -7.4839523435206559e+00 -1.4306110475158511e+02 0 0 0
577 24 2 0.0000000000000000e+00 -4.0575247959944328e+01 -5.4274183980919801e+00 -1.4339755834947377e+02 0 0 0
4455 179 4 0.0000000000000000e+00 -2.5833898308116524e+01 -1.2601219146813644e+01 -1.4909956074487462e+02 0 0 0
3176 128 3 0.0000000000000000e+00 -3.2400494220033686e+01 -1.3107952241349890e+01 -1.4071319758946456e+02 0 0 0
4456 179 4 0.0000000000000000e+00 -1.7253581834891612e+01 -1.5563787616336954e+01 -1.4417948872627755e+02 0 0 0
4949 198 4 0.0000000000000000e+00 -4.3781259317870145e+01 -7.4732528986947344e+01 -1.2349623171307714e+02 0 0 0
258 11 2 0.0000000000000000e+00 -6.9843588700509088e+01 -6.8135144636601638e+01 -1.2723933047909439e+02 0 0 0
4950 198 3 0.0000000000000000e+00 -5.2625405555216545e+01 -7.0450100823213944e+01 -1.2398087612838442e+02 0 0 0
1166 47 2 0.0000000000000000e+00 -4.3432024399383856e+01 -6.2332514974526596e+01 -1.3102250909111640e+02 0 0 0
1165 47 2 0.0000000000000000e+00 -3.8145504746028841e+01 -6.4786001825080547e+01 -1.2311439521736062e+02 0 0 0
4155 167 4 0.0000000000000000e+00 -7.2087657932998894e+01 -5.6842839862880261e+01 -1.3563508954863656e+02 0 0 0
4156 167 4 0.0000000000000000e+00 -7.5168699681510532e+01 -5.4647486279432826e+01 -1.2658367122857152e+02 0 0 0
1988 80 1 0.0000000000000000e+00 -6.2037236221107158e+01 -4.9078113559899712e+01 -1.2612752265501030e+02 0 0 0
1168 47 2 0.0000000000000000e+00 -2.7837290781516352e+01 -5.5468655143103696e+01 -1.2459517282879845e+02 0 0 0
1167 47 2 0.0000000000000000e+00 -3.4912584379405232e+01 -5.6946887813533500e+01 -1.3165059160512610e+02 0 0 0
3073 123 4 0.0000000000000000e+00 -9.3659878050433406e+01 -3.2708466869327644e+01 -1.2691311913234077e+02 0 0 0
3071 123 4 0.0000000000000000e+00 -8.6328511962878238e+01 -3.8297106881999845e+01 -1.3641349898289684e+02 0 0 0
3072 123 4 0.0000000000000000e+00 -9.2507726788585686e+01 -4.2496114842298077e+01 -1.2861641795612681e+02 0 0 0
4200 168 3 0.0000000000000000e+00 -7.0568748906868407e+01 -4.3039526039070935e+01 -1.2840821461357490e+02 0 0 0
4199 168 4 0.0000000000000000e+00 -7.4370426147136556e+01 -3.4344857480272580e+01 -1.2617240472831666e+02 0 0 0
1987 80 2 0.0000000000000000e+00 -6.1663571854208350e+01 -4.0544746867163084e+01 -1.3098191136890699e+02 0 0 0
266 11 2 0.0000000000000000e+00 -5.1812438049122647e+01 -3.4988203663921091e+01 -1.2808134075868711e+02 0 0 0
267 11 2 0.0000000000000000e+00 -4.3057321366017881e+01 -3.6628130168671220e+01 -1.3245643484585673e+02 0 0 0
269 11 1 0.0000000000000000e+00 -3.2994391063599672e+01 -3.1723123444528500e+01 -1.3663411258808276e+02 0 0 0
3151 127 3 0.0000000000000000e+00 -2.2663955939332887e+01 -3.3826073776698259e+01 -1.3347481244093660e+02 0 0 0
586 24 2 0.0000000000000000e+00 -9.3365826474547120e+01 -1.9132501050299648e+01 -1.3342100895916613e+02 0 0 0
3074 123 4 0.0000000000000000e+00 -8.8912495392125436e+01 -2.8011060179410819e+01 -1.3487012302626425e+02 0 0 0
587 24 2 0.0000000000000000e+00 -9.0973836015481041e+01 -2.0961525247642580e+01 -1.2402175605332022e+02 0 0 0
4198 168 4 0.0000000000000000e+00 -7.9689065803161327e+01 -2.5441200812516751e+01 -1.2356877689044643e+02 0 0 0
582 24 1 0.0000000000000000e+00 -6.9451465928173391e+01 -2.4967606318861950e+01 -1.3501305123452755e+02 0 0 0
3166 127 4 0.0000000000000000e+00 -6.6324330252599921e+01 -2.0696902282602224e+01 -1.2425853946755790e+02 0 0 0
581 24 2 0.0000000000000000e+00 -6.1718844114300026e+01 -3.0434742748588619e+01 -1.3202234884187766e+02 0 0 0
3165 127 4 0.0000000000000000e+00 -5.6505229158408660e+01 -2.1630664115115234e+01 -1.2276219756059027e+02 0 0 0
3152 127 4 0.0000000000000000e+00 -2.5225109311902795e+01 -2.6180081599994676e+01 -1.2660734679838319e+02 0 0 0
3168 127 4 0.0000000000000000e+00 -8.4441989230635258e+01 -1.2632883428086041e+01 -1.2690477223738596e+02 0 0 0
3169 127 3 0.0000000000000000e+00 -9.3906068222368219e+01 -9.8177095586594199e+00 -1.2379435969115558e+02 0 0 0
3167 127 4 0.0000000000000000e+00 -7.4287733818794635e+01 -1.4598892866872607e+01 -1.2577987563103737e+02 0 0 0
2073 83 2 0.0000000000000000e+00 -6.5522434568104288e+01 -8.7953977580761595e+00 -1.3636208757975527e+02 0 0 0
2167 87 2 0.0000000000000000e+00 -5.6911033285571655e+01 -7.9396476665077502e+00 -1.2741280799982293e+02 0 0 0
1841 74 2 0.0000000000000000e+00 -4.4620505491924298e+01 -1.5655838209776482e+01 -1.3578423538139987e+02 0 0 0
3164 127 4 0.0000000000000000e+00 -4.9292224594825498e+01 -1.3970737650724853e+01 -1.2432569204339909e+02 0 0 0
1840 74 2 0.0000000000000000e+00 -4.0148700886296908e+01 -1.1534253949102263e+01 -1.2710943319760155e+02 0 0 0
2166 87 2 0.0000000000000000e+00 -4.9031812409133288e+01 -4.7942126203929041e+00 -1.3288469969895462e+02 0 0 0
3177 128 4 0.0000000000000000e+00 -3.2175942873438082e+01 -5.0859203117162837e+00 -1.3483631009453620e+02 0 0 0
1837 74 2 0.0000000000000000e+00 -1.5920883365501544e+01 -5.7932741566598693e+00 -1.2420635749161495e+02 0 0 0
1941 78 2 0.0000000000000000e+00 -5.5037215467928675e+01 -9.0715942715105626e+01 -1.1042840458528664e+02 0 0 0
1945 78 2 0.0000000000000000e+00 -4.7816710798342918e+01 -9.7890539252426123e+01 -1.1316356521216939e+02 0 0 0
1944 78 1 0.0000000000000000e+00 -4.3670369484876417e+01 -8.9260126058149979e+01 -1.1263217565189167e+02 0 0 0
1943 78 2 0.0000000000000000e+00 -4.6322306362279676e+01 -8.0334021052411501e+01 -1.1078638394594623e+02 0 0 0
4948 198 4 0.0000000000000000e+00 -3.4789131334788713e+01 -7.5728622283803304e+01 -1.1852055304612117e+02 0 0 0
4947 198 4 0.0000000000000000e+00 -3.1678829671721697e+01 -7.2599475850616315e+01 -1.0927708338578073e+02 0 0 0
4162 167 4 0.0000000000000000e+00 -8.9999168389395933e+01 -6.2810067816720903e+01 -1.1690079044588943e+02 0 0 0
4163 167 3 0.0000000000000000e+00 -8.0297779232233466e+01 -6.1261542248812958e+01 -1.1331590913400044e+02 0 0 0
259 11 2 0.0000000000000000e+00 -7.1939219289881208e+01 -6.7675456799988609e+01 -1.1733523040467051e+02 0 0 0
260 11 2 0.0000000000000000e+00 -6.6678651493561716e+01 -7.0613764472363897e+01 -1.0903418460263160e+02 0 0 0
257 11 1 0.0000000000000000e+00 -6.2332313003285002e+01 -6.4794767752028449e+01 -1.2145238452730537e+02 0 0 0
256 11 2 0.0000000000000000e+00 -5.5601601405602949e+01 -6.2002983458680738e+01 -1.1494163235560814e+02 0 0 0
255 11 2 0.0000000000000000e+00 -4.5868803019952367e+01 -6.5564523856012286e+01 -1.1381355604029400e+02 0 0 0
1164 47 2 0.0000000000000000e+00 -2.9162421477393512e+01 -6.7062252971617411e+01 -1.2056975863095259e+02 0 0 0
1163 47 1 0.0000000000000000e+00 -2.0069206359465156e+01 -6.7829745255597643e+01 -1.1602515177485107e+02 0 0 0
3275 131 3 0.0000000000000000e+00 -9.5435318252430559e+00 -6.4593867994288246e+01 -1.2069743903066338e+02 0 0 0
4161 167 4 0.0000000000000000e+00 -9.9220800577798258e+01 -5.8339172625667359e+01 -1.1613505904992010e+02 0 0 0
4160 167 4 0.0000000000000000e+00 -1.0099420715840873e+02 -4.8278590097817116e+01 -1.1597237480427745e+02 0 0 0
4158 167 4 0.0000000000000000e+00 -8.9805354486193536e+01 -4.8088740524374224e+01 -1.1428923763791981e+02 0 0 0
4157 167 3 0.0000000000000000e+00 -8.2091834953331869e+01 -5.0835014782996403e+01 -1.2028996512448758e+02 0 0 0
2388 96 1 0.0000000000000000e+00 -8.0250865974638160e+01 -5.0785374671770064e+01 -1.0848383708868806e+02 0 0 0
2387 96 2 0.0000000000000000e+00 -7.1553520707022216e+01 -4.7035102850334212e+01 -1.1162122236154842e+02 0 0 0
1989 80 2 0.0000000000000000e+00 -6.2774968586679506e+01 -5.4464087504022856e+01 -1.1730971191390965e+02 0 0 0
264 11 2 0.0000000000000000e+00 -5.8701675989681867e+01 -4.5856443382185766e+01 -1.1355593315442749e+02 0 0 0
263 11 1 0.0000000000000000e+00 -5.0361934022112209e+01 -5.1017551086000978e+01 -1.1131097970484041e+02 0 0 0
1169 47 1 0.0000000000000000e+00 -3.6676313567823378e+01 -5.1825295947017032e+01 -1.2037872402463434e+02 0 0 0
3084 124 4 0.0000000000000000e+00 -2.8514803438105016e+01 -5.7821370747505263e+01 -1.1344782997656068e+02 0 0 0
3085 124 4 0.0000000000000000e+00 -2.3305939769487743e+01 -4.9511781609031217e+01 -1.1384997068265457e+02 0 0 0
3086 124 4 0.0000000000000000e+00 -1.2938464663616486e+01 -4.7162174863343722e+01 -1.1404433453661507e+02 0 0 0
2396 96 2 0.0000000000000000e+00 -1.1561753348665292e+02 -3.4956847278397142e+01 -1.1038238756246730e+02 0 0 0
2397 96 2 0.0000000000000000e+00 -1.0652083722772947e+02 -3.4749707854941796e+01 -1.1507271322316741e+02 0 0 0
2398 96 2 0.0000000000000000e+00 -9.6342536142758917e+01 -3.2976706571090425e+01 -1.1666497315336792e+02 0 0 0
4159 167 4 0.0000000000000000e+00 -9.5943415032903303e+01 -4.3240094525855312e+01 -1.0867062308396309e+02 0 0 0
2399 96 2 0.0000000000000000e+00 -8.7450599789952022e+01 -3.6818398467336067e+01 -1.1948340529954338e+02 0 0 0
2400 96 1 0.0000000000000000e+00 -7.7887970701693050e+01 -4.0783103496806646e+01 -1.1964552244473305e+02 0 0 0
265 11 2 0.0000000000000000e+00 -5.5094138161487791e+01 -4.2437080688542785e+01 -1.2217343525741877e+02 0 0 0
1170 47 2 0.0000000000000000e+00 -3.7012983103650484e+01 -4.3795060112239035e+01 -1.1420541550495537e+02 0 0 0
2725 109 3 0.0000000000000000e+00 -2.7692484034056580e+01 -4.4575345791256190e+01 -1.2196214483397826e+02 0 0 0
1171 47 2 0.0000000000000000e+00 -2.9259059910376575e+01 -3.7626782403090047e+01 -1.1219246731839051e+02 0 0 0
2724 109 4 0.0000000000000000e+00 -2.0292772675920265e+01 -3.9778534733700916e+01 -1.1671517699701144e+02 0 0 0
4187 168 4 0.0000000000000000e+00 -1.2305962401999021e+02 -1.8649006474485006e+01 -1.1765620551762066e+02 0 0 0
4188 168 3 0.0000000000000000e+00 -1.1941844250519001e+02 -2.3593757295752116e+01 -1.1023241201885685e+02 0 0 0
589 24 2 0.0000000000000000e+00 -8.5344688166289956e+01 -2.3098738879959953e+01 -1.0960973431649452e+02 0 0 0
4197 168 4 0.0000000000000000e+00 -7.6923996278161226e+01 -2.0334326198585199e+01 -1.1483056659199467e+02 0 0 0
2385 96 2 0.0000000000000000e+00 -7.0350514915860202e+01 -2.9416260634246637e+01 -1.0857812645733249e+02 0 0 0
3156 127 4 0.0000000000000000e+00 -5.7252162694128536e+01 -2.6438146479700688e+01 -1.1297242785463192e+02 0 0 0
3155 127 4 0.0000000000000000e+00 -5.0323538588647651e+01 -3.0995949786867673e+01 -1.1836700678176420e+02 0 0 0
3154 127 4 0.0000000000000000e+00 -4.2273308307724655e+01 -2.4138016549102570e+01 -1.1795169656156270e+02 0 0 0
3153 127 4 0.0000000000000000e+00 -3.2436391163678984e+01 -2.6166539294197342e+01 -1.1986032722828446e+02 0 0 0
2723 109 4 0.0000000000000000e+00 -1.6520027833371227e+01 -3.0537807426842189e+01 -1.1818980097952914e+02 0 0 0
2722 109 4 0.0000000000000000e+00 -1.7525283467882023e+01 -2.0928031437128524e+01 -1.1592441931609069e+02 0 0 0
4186 168 4 0.0000000000000000e+00 -1.2416616017351950e+02 -8.6756491928795825e+00 -1.1490537320090611e+02 0 0 0
1418 57 2 0.0000000000000000e+00 -1.1151980585062788e+02 -4.6420403530788672e+00 -1.1978849786734581e+02 0 0 0
3170 127 4 0.0000000000000000e+00 -9.9129684428066113e+01 -7.8851181519010733e+00 -1.1491653139909582e+02 0 0 0
3171 127 4 0.0000000000000000e+00 -9.5281049706828199e+01 -1.4215470378561125e+01 -1.0851188976875432e+02 0 0 0
588 24 1 0.0000000000000000e+00 -8.8050277356588296e+01 -1.5380129798734465e+01 -1.1596924254157680e+02 0 0 0
2052 83 2 0.0000000000000000e+00 -8.1488689182105702e+01 -7.4983713554859088e+00 -1.1198064036230825e+02 0 0 0
2053 83 2 0.0000000000000000e+00 -7.5083585567868411e+01 -6.9755982516315811e+00 -1.1952484944775969e+02 0 0 0
2168 87 2 0.0000000000000000e+00 -5.8806227604219139e+01 -1.3378482252480467e+01 -1.1869439090792670e+02 0 0 0
2169 87 1 0.0000000000000000e+00 -5.3500285185609663e+01 -1.0650008741343020e+01 -1.1074055674416796e+02 0 0 0
3163 127 3 0.0000000000000000e+00 -4.9104964742630109e+01 -4.3866963059449136e+00 -1.2181903120246923e+02 0 0 0
1662 67 2 0.0000000000000000e+00 -4.0962082304496150e+01 -1.1320026332186384e+01 -1.1317932552231801e+02 0 0 0
2720 109 4 0.0000000000000000e+00 -2.8048486292667327e+01 -1.6960736002913716e+01 -1.1676557620951789e+02 0 0 0
2719 109 3 0.0000000000000000e+00 -3.2901807970416847e+01 -1.2466580091550298e+01 -1.0913075806363781e+02 0 0 0
1839 74 2 0.0000000000000000e+00 -3.3386446487635432e+01 -8.5862805202591783e+00 -1.2013369007515566e+02 0 0 0
1838 74 1 0.0000000000000000e+00 -2.4070851340474309e+01 -4.9030424816034630e+00 -1.1829362644300913e+02 0 0 0
2721 109 4 0.0000000000000000e+00 -2.0391298392264662e+01 -1.3694848464025931e+01 -1.2233191999568653e+02 0 0 0
3300 132 3 0.0000000000000000e+00 -1.6896929548868833e+01 -1.0795611323791521e+01 -1.1300324296753639e+02 0 0 0
1946 78 2 0.0000000000000000e+00 -5.0377927103742536e+01 -1.0232302619972707e+02 -1.0404405762848448e+02 0 0 0
1940 78 2 0.0000000000000000e+00 -5.8075261934097888e+01 -9.4565201023116146e+01 -1.0138426521650551e+02 0 0 0
1939 78 2 0.0000000000000000e+00 -4.8687335498852526e+01 -9.0805424773964148e+01 -1.0118743378681459e+02 0 0 0
3976 160 3 0.0000000000000000e+00 -3.5478480906965835e+01 -8.6387755639681089e+01 -1.0524707506143174e+02 0 0 0
3977 160 4 0.0000000000000000e+00 -3.6751700445738614e+01 -8.9076770240301371e+01 -9.6103262612747685e+01 0 0 0
1942 78 2 0.0000000000000000e+00 -5.5728038575011496e+01 -8.1211709637258210e+01 -1.0671192061909544e+02 0 0 0
1938 78 1 0.0000000000000000e+00 -4.6057620699086314e+01 -8.1926413857641137e+01 -9.7765101226180548e+01 0 0 0
4946 198 4 0.0000000000000000e+00 -3.3355012182364007e+01 -7.2543850065500664e+01 -9.9163164304397938e+01 0 0 0
1885 76 2 0.0000000000000000e+00 -1.4258458940057423e+01 -8.4919871832619634e+01 -9.6635468710201039e+01 0 0 0
1884 76 2 0.0000000000000000e+00 -1.1863466449043617e+01 -7.8195739598345710e+01 -1.0363567942684136e+02 0 0 0
4164 167 4 0.0000000000000000e+00 -7.1732186499431563e+01 -5.8924491649943789e+01 -1.0806636679014721e+02 0 0 0
1651 67 1 0.0000000000000000e+00 -7.9089527936417454e+01 -6.3135202287881434e+01 -1.0227976719336371e+02 0 0 0
4166 167 4 0.0000000000000000e+00 -6.9211274810217219e+01 -7.0912563291876054e+01 -9.6555641217828025e+01 0 0 0
4165 167 4 0.0000000000000000e+00 -6.6388232318596792e+01 -6.1222129633302082e+01 -9.9736327218485187e+01 0 0 0
261 11 2 0.0000000000000000e+00 -5.8113163934451848e+01 -6.6990743506568677e+01 -1.0530625129870523e+02 0 0 0
1936 78 2 0.0000000000000000e+00 -5.3028533265967056e+01 -6.4434098422134582e+01 -9.7060361906300358e+01 0 0 0
1937 78 2 0.0000000000000000e+00 -4.6918580077714488e+01 -7.2258729494819107e+01 -9.8194392062437885e+01 0 0 0
262 11 2 0.0000000000000000e+00 -5.0303749438750273e+01 -5.9682751480044985e+01 -1.0595954163983600e+02 0 0 0
254 11 2 0.0000000000000000e+00 -4.1425172345211131e+01 -7.1041540475195802e+01 -1.0653346684530079e+02 0 0 0
253 11 2 0.0000000000000000e+00 -3.9822020772683992e+01 -6.3522881973514771e+01 -1.0011697391836354e+02 0 0 0
1162 47 2 0.0000000000000000e+00 -2.0107135664187979e+01 -6.2908859276023883e+01 -1.0759819069939697e+02 0 0 0
2394 96 1 0.0000000000000000e+00 -1.2074359083584328e+02 -4.5568303168158636e+01 -9.5735020783814875e+01 0 0 0
2389 96 2 0.0000000000000000e+00 -8.8723118507781933e+01 -5.4129311491591082e+01 -1.0452390222349796e+02 0 0 0
2390 96 2 0.0000000000000000e+00 -9.3415132520654367e+01 -5.4036757564004660e+01 -9.5217142947355427e+01 0 0 0
1652 67 2 0.0000000000000000e+00 -7.8385431461224883e+01 -5.4480929507224147e+01 -9.7073228109298313e+01 0 0 0
1991 80 2 0.0000000000000000e+00 -6.3879069687864742e+01 -4.9007707862259032e+01 -9.9317649024694333e+01 0 0 0
1990 80 2 0.0000000000000000e+00 -6.2730523247424870e+01 -5.4644133883568379e+01 -1.0747636829738209e+02 0 0 0
1935 78 2 0.0000000000000000e+00 -5.6429999030886798e+01 -5.5024853713713867e+01 -9.4820781755861347e+01 0 0 0
3082 124 3 0.0000000000000000e+00 -4.1629559453184839e+01 -4.5834964645706989e+01 -1.0675300668973770e+02 0 0 0
252 11 2 0.0000000000000000e+00 -4.2494556333726443e+01 -5.5267353966609718e+01 -9.4514539322940536e+01 0 0 0
3083 124 4 0.0000000000000000e+00 -3.4310612436120444e+01 -5.2456384966592388e+01 -1.0702984019207312e+02 0 0 0
1161 47 2 0.0000000000000000e+00 -1.3482131882554137e+01 -5.5838602529723872e+01 -1.0636931966489507e+02 0 0 0
1160 47 2 0.0000000000000000e+00 -1.4604429917737578e+01 -5.0571950360237700e+01 -9.8048447185882537e+01 0 0 0
3850 154 3 0.0000000000000000e+00 -1.3120332389553673e+02 -4.1119258669333959e+01 -9.5928468252010020e+01 0 0 0
2395 96 2 0.0000000000000000e+00 -1.2168046501915812e+02 -4.0107148365461256e+01 -1.0418981494261577e+02 0 0 0
3175 127 3 0.0000000000000000e+00 -8.5054791329186941e+01 -4.1793206877661028e+01 -1.0406469411469116e+02 0 0 0
591 24 2 0.0000000000000000e+00 -8.3418664073283182e+01 -3.6746307585008552e+01 -9.4700428960142261e+01 0 0 0
3174 127 4 0.0000000000000000e+00 -9.3213539000751780e+01 -3.8247198389792608e+01 -9.9498830139736754e+01 0 0 0
2386 96 2 0.0000000000000000e+00 -6.7290971900637885e+01 -3.8707537183821671e+01 -1.0758392486848935e+02 0 0 0
3080 124 4 0.0000000000000000e+00 -5.7683189639315479e+01 -3.3972717529535672e+01 -1.0411230611398295e+02 0 0 0
3081 124 4 0.0000000000000000e+00 -4.9948435931959317e+01 -4.0544305405502371e+01 -1.0693836810863274e+02 0 0 0
148 6 2 0.0000000000000000e+00 -3.8819620136954484e+01 -3.6591664276065501e+01 -1.0148940277815957e+02 0 0 0
149 6 2 0.0000000000000000e+00 -2.9241340236392933e+01 -3.9429306557079926e+01 -1.0184483008110304e+02 0 0 0
150 6 1 0.0000000000000000e+00 -2.0398979528836449e+01 -4.1687470771283039e+01 -1.0675479911907465e+02 0 0 0
3881 156 4 0.0000000000000000e+00 -1.1248900293888136e+01 -3.7757504026398344e+01 -9.6642908717507069e+01 0 0 0
3882 156 3 0.0000000000000000e+00 -1.9115408815918570e+01 -3.2996484944634858e+01 -9.9799872942280558e+01 0 0 0
1999 80 2 0.0000000000000000e+00 -1.1533764422217844e+02 -3.1147154590570995e+01 -9.7202902085800190e+01 0 0 0
2000 80 1 0.0000000000000000e+00 -1.1059981804862423e+02 -2.8304571823811621e+01 -1.0582416056173285e+02 0 0 0
4189 168 4 0.0000000000000000e+00 -1.1937845863720494e+02 -2.2504676683405279e+01 -9.9793731421444846e+01 0 0 0
3173 127 4 0.0000000000000000e+00 -9.7238521516687499e+01 -2.9931042031460347e+01 -9.6982653746869232e+01 0 0 0
3172 127 4 0.0000000000000000e+00 -9.3320030936322851e+01 -2.3071473682700880e+01 -1.0337193018358919e+02 0 0 0
590 24 2 0.0000000000000000e+00 -8.5477067950104086e+01 -3.1012804881551869e+01 -1.0295663230965627e+02 0 0 0
2383 96 2 0.0000000000000000e+00 -8.4395802960842232e+01 -2.3470958681032730e+01 -9.7344827098519829e+01 0 0 0
2384 96 2 0.0000000000000000e+00 -7.6089348487653794e+01 -2.8034950152845841e+01 -1.0024764970970526e+02 0 0 0
4195 168 4 0.0000000000000000e+00 -7.4070419383088705e+01 -2.0331484597801872e+01 -9.5925782761469534e+01 0 0 0
3157 127 3 0.0000000000000000e+00 -6.1021086079163084e+01 -1.8543619295400141e+01 -1.0786092338389389e+02 0 0 0
3079 124 4 0.0000000000000000e+00 -6.4024027089758832e+01 -2.9150087582532667e+01 -9.8211406595873498e+01 0 0 0
1659 67 2 0.0000000000000000e+00 -5.3800818578538113e+01 -3.0751771578457927e+01 -9.5172680015421918e+01 0 0 0
1661 67 2 0.0000000000000000e+00 -4.5258135744597496e+01 -1.8567624593713688e+01 -1.0815479963249170e+02 0 0 0
1660 67 2 0.0000000000000000e+00 -5.0718918558184157e+01 -2.4479840847554058e+01 -1.0155325897844567e+02 0 0 0
147 6 2 0.0000000000000000e+00 -4.1161998981607098e+01 -2.7725493486167579e+01 -9.6928600785355485e+01 0 0 0
1172 47 2 0.0000000000000000e+00 -2.6116901882543836e+01 -2.8607198647311993e+01 -1.0794265536108635e+02 0 0 0
1173 47 2 0.0000000000000000e+00 -2.9938664635790854e+01 -2.1987766803077836e+01 -1.0087635840151792e+02 0 0 0
3883 156 4 0.0000000000000000e+00 -1.6721202550877567e+01 -2.4214737392180350e+01 -9.5746245632715926e+01 0 0 0
3299 132 4 0.0000000000000000e+00 -1.6139416912782135e+01 -1.8472923525282457e+01 -1.0623224941580607e+02 0 0 0
3298 132 4 0.0000000000000000e+00 -9.6315877789487807e+00 -2.5900479028056072e+01 -1.0594682704255573e+02 0 0 0
4184 168 4 0.0000000000000000e+00 -1.3303201761861447e+02 -4.8523078512440900e+00 -9.8801063665582646e+01 0 0 0
4185 168 4 0.0000000000000000e+00 -1.2529885881174290e+02 -6.0521299452597592e+00 -1.0463542952818356e+02 0 0 0
4181 168 4 0.0000000000000000e+00 -1.1716520860042438e+02 -1.1717761876761234e+01 -9.6313151973529159e+01 0 0 0
4180 168 4 0.0000000000000000e+00 -1.1383723655040401e+02 -7.7771326099222087e+00 -1.0529303738778481e+02 0 0 0
3996 160 4 0.0000000000000000e+00 -1.0750168926603219e+02 -1.4160658620577369e+01 -9.8410390893178459e+01 0 0 0
2051 83 1 0.0000000000000000e+00 -8.8988720648415153e+01 -5.0397635374723340e+00 -1.0545950880067994e+02 0 0 0
4196 168 4 0.0000000000000000e+00 -7.5204981824157670e+01 -1.7126443037957493e+01 -1.0526578907675471e+02 0 0 0
2714 109 4 0.0000000000000000e+00 -7.6005995009214246e+01 -9.6262468145036557e+00 -9.5814808173296427e+01 0 0 0
2715 109 4 0.0000000000000000e+00 -6.7091179320284709e+01 -1.3652579355319546e+01 -9.7457963855413425e+01 0 0 0
3158 127 4 0.0000000000000000e+00 -6.1557647995480089e+01 -8.2937065534335073e+00 -1.0578345412801704e+02 0 0 0
2716 109 4 0.0000000000000000e+00 -5.7052069858807876e+01 -1.4621110287904763e+01 -9.9040128546543471e+01 0 0 0
2170 87 2 0.0000000000000000e+00 -5.3059246401922159e+01 -5.0107567373685056e+00 -1.0225837796968378e+02 0 0 0
2717 109 4 0.0000000000000000e+00 -4.7384728668924858e+01 -1.2677702858462784e+01 -9.9744801753892403e+01 0 0 0
1663 67 1 0.0000000000000000e+00 -3.9975860799779127e+01 -4.1581577657262194e+00 -1.0584030749929754e+02 0 0 0
2718 109 4 0.0000000000000000e+00 -3.7411026613514395e+01 -1.2929340587747026e+01 -1.0013609325039305e+02 0 0 0
1175 47 1 0.0000000000000000e+00 -2.4496621148822410e+01 -5.5944633492574285e+00 -1.0834295036960305e+02 0 0 0
1174 47 2 0.0000000000000000e+00 -2.7023630196279004e+01 -1.2093933195061457e+01 -1.0126151658975739e+02 0 0 0
935 38 2 0.0000000000000000e+00 -9.9547284143257979e+00 -4.1122765281598976e+00 -9.6291279991328480e+01 0 0 0
3884 156 4 0.0000000000000000e+00 -9.7778519489247149e+00 -1.6461603577022892e+01 -9.4993328322422869e+01 0 0 0
2375 95 1 0.0000000000000000e+00 -7.0479332386442096e+01 -1.1424706371895623e+02 -8.8337952768753240e+01 0 0 0
2374 95 2 0.0000000000000000e+00 -6.2036868132629010e+01 -1.1583567295961288e+02 -8.2383220014610401e+01 0 0 0
3276 132 3 0.0000000000000000e+00 -5.1857859791260353e+01 -1.2494577832479355e+02 -8.2638292951496950e+01 0 0 0
4676 188 3 0.0000000000000000e+00 -6.2538994328689384e+01 -1.0802007422272591e+02 -9.1973067286317914e+01 0 0 0