LAMMPS data file via write_data, version 5 Jun 2019, timestep = 400000000

5000 atoms
4 atom types
5294 bonds
3 bond types
4600 angles
2 angle types

-2.5000000000000000e+02 2.5000000000000000e+02 xlo xhi
-2.5000000000000000e+02 2.5000000000000000e+02 ylo yhi
-2.5000000000000000e+02 2.5000000000000000e+02 zlo zhi

Masses

1 1000
2 1000
3 1000
4 1000

Pair Coeffs # lj/cut

1 0.3 10
2 0.3 10
3 0.3 10
4 0.3 10

Bond Coeffs # harmonic

1 3 10
2 3 10
3 3 11.22

Angle Coeffs # cosine

1 2
2 2

Atoms # full

3059 123 4 0.0000000000000000e+00 -4.2477399734495748e+01 2.1817388178528802e+01 -1.7959815386343274e+02 0 0 0
3058 123 4 0.0000000000000000e+00 -3.9561140631050044e+01 2.8851557568837347e+01 -1.8554088399285806e+02 0 0 0
401 17 1 0.0000000000000000e+00 -4.9626024273365580e+01 3.2701381223785113e+01 -1.7845495806861879e+02 0 0 0
1848 74 2 0.0000000000000000e+00 -4.3754088296189614e+01 -4.1038654689771825e+01 -1.6340423197398496e+02 0 0 0
4776 192 3 0.0000000000000000e+00 -2.2214361134148263e+01 -3.4993464258493375e+01 -1.7171081791007333e+02 0 0 0
4777 192 4 0.0000000000000000e+00 -1.7506051446813341e+01 -2.7214290278599382e+01 -1.6712186551880555e+02 0 0 0
2067 83 2 0.0000000000000000e+00 -6.0166094912574152e+01 -7.3781401350105824e+00 -1.7033179236183719e+02 0 0 0
4778 192 4 0.0000000000000000e+00 -1.8338372976786765e+01 -1.7084424991398816e+01 -1.6579889185787343e+02 0 0 0
2064 83 2 0.0000000000000000e+00 -8.5332439114120817e+01 2.5307465683996337e+00 -1.6728003058766527e+02 0 0 0
2065 83 2 0.0000000000000000e+00 -7.7989178931627620e+01 9.0312370427747179e-01 -1.7409456661589221e+02 0 0 0
2066 83 2 0.0000000000000000e+00 -6.8366910986416087e+01 -2.8282941675554762e+00 -1.7471941157692478e+02 0 0 0
4476 180 3 0.0000000000000000e+00 -7.6241184303467065e+01 1.3987167714732045e+00 -1.6486031689810133e+02 0 0 0
3202 129 4 0.0000000000000000e+00 -4.0601619940833295e+01 2.7200051266174707e+00 -1.7226166467094899e+02 0 0 0
3201 129 3 0.0000000000000000e+00 -4.6248641137342666e+01 -2.0895665165621771e+00 -1.6508409008726210e+02 0 0 0
3203 129 4 0.0000000000000000e+00 -3.0595731932529045e+01 3.4665375754703707e+00 -1.7189803180313424e+02 0 0 0
3204 129 4 0.0000000000000000e+00 -2.1376546424109630e+01 6.6254223799294976e-01 -1.6973154926321368e+02 0 0 0
4478 180 4 0.0000000000000000e+00 -8.1706716162258900e+01 1.6971557341674899e+01 -1.6403357300802367e+02 0 0 0
4477 180 4 0.0000000000000000e+00 -7.6389108974821013e+01 1.0142402934379835e+01 -1.7054288274463786e+02 0 0 0
3061 123 4 0.0000000000000000e+00 -5.3609304413188653e+01 1.0202616290551248e+01 -1.7023787339319097e+02 0 0 0
274 11 2 0.0000000000000000e+00 -5.2315713014951854e+01 1.8900184824622077e+01 -1.6494814724757970e+02 0 0 0
3060 123 4 0.0000000000000000e+00 -4.7972312485564679e+01 1.3723350306803244e+01 -1.7766553936553959e+02 0 0 0
273 11 2 0.0000000000000000e+00 -4.2524946194929925e+01 1.9493856855493906e+01 -1.6849368444991708e+02 0 0 0
272 11 2 0.0000000000000000e+00 -3.5408524090614733e+01 1.2842765468642053e+01 -1.6790686167730510e+02 0 0 0
271 11 2 0.0000000000000000e+00 -2.6660873699353370e+01 1.1019578132630295e+01 -1.6335614244566005e+02 0 0 0
3206 129 4 0.0000000000000000e+00 -1.8067309130173612e+01 1.7080547749262074e+01 -1.6349777989244660e+02 0 0 0
2247 90 2 0.0000000000000000e+00 -6.2726316951655534e+01 3.2015760847243449e+01 -1.6612517304115937e+02 0 0 0
2246 90 2 0.0000000000000000e+00 -5.2035416038264259e+01 3.2508793851856829e+01 -1.6580481345425841e+02 0 0 0
4462 179 4 0.0000000000000000e+00 -3.0877622183917499e+01 2.4013292973301034e+01 -1.6667116641252784e+02 0 0 0
4463 179 3 0.0000000000000000e+00 -2.7091433504853697e+01 3.3036748395480650e+01 -1.6927778471585145e+02 0 0 0
3207 129 3 0.0000000000000000e+00 -1.8840695735114405e+01 2.7736911927393091e+01 -1.6553917413460661e+02 0 0 0
3208 129 4 0.0000000000000000e+00 -1.2112625103809005e+01 3.4840614969904060e+01 -1.6355756018984843e+02 0 0 0
1847 74 2 0.0000000000000000e+00 -4.9594852344696207e+01 -4.1616684858405819e+01 -1.5553573654580367e+02 0 0 0
1846 74 2 0.0000000000000000e+00 -4.9095869006308071e+01 -3.3419914968790984e+01 -1.4986561819210792e+02 0 0 0
1849 74 2 0.0000000000000000e+00 -3.4029012427126965e+01 -4.0559125434361270e+01 -1.6140455591664463e+02 0 0 0
1850 74 1 0.0000000000000000e+00 -2.4425146534298957e+01 -3.8278599748883970e+01 -1.6111239201100034e+02 0 0 0
2069 83 1 0.0000000000000000e+00 -6.6901520772273756e+01 -6.4210156740592108e+00 -1.6065634088262084e+02 0 0 0
2068 83 2 0.0000000000000000e+00 -6.0470326735603493e+01 -1.3989690472165195e+01 -1.6180236872662306e+02 0 0 0
4451 179 3 0.0000000000000000e+00 -5.6620703236439802e+01 -5.7555572252429785e+00 -1.5756518063333377e+02 0 0 0
268 11 2 0.0000000000000000e+00 -2.5809753420755882e+01 -1.2085139919077072e+01 -1.4953052025238475e+02 0 0 0
4779 192 4 0.0000000000000000e+00 -1.2641886836967041e+01 -1.0048788898623410e+01 -1.6147405285190604e+02 0 0 0
2063 83 1 0.0000000000000000e+00 -8.4828220559472669e+01 3.0433307039950628e+00 -1.5669446902079790e+02 0 0 0
2071 83 2 0.0000000000000000e+00 -6.5537594098548922e+01 6.8394135142942254e+00 -1.4916954908099223e+02 0 0 0
2070 83 2 0.0000000000000000e+00 -6.4462118454691151e+01 3.3665418128131539e+00 -1.5863884997206387e+02 0 0 0
1451 59 1 0.0000000000000000e+00 -4.1083909373846247e+01 -5.0438097619656084e+00 -1.5579055746301182e+02 0 0 0
3062 123 4 0.0000000000000000e+00 -4.9826154761596058e+01 7.6465753697354266e+00 -1.6214738361174275e+02 0 0 0
3063 123 3 0.0000000000000000e+00 -4.5985114083590872e+01 6.4403027040739911e+00 -1.5252338844721001e+02 0 0 0
269 11 1 0.0000000000000000e+00 -2.9749612158850081e+01 -3.4179474392972113e+00 -1.5209393349129985e+02 0 0 0
270 11 2 0.0000000000000000e+00 -2.7241948938387502e+01 1.2963733718204646e+00 -1.6038983650251046e+02 0 0 0
1452 59 2 0.0000000000000000e+00 -3.6087770011456797e+01 3.4041538743276103e+00 -1.5626528570392398e+02 0 0 0
1453 59 2 0.0000000000000000e+00 -2.8950850010690591e+01 6.6715890800458828e+00 -1.4931578167689096e+02 0 0 0
3205 129 4 0.0000000000000000e+00 -1.7642767478430809e+01 6.9703501931134078e+00 -1.6207985971466064e+02 0 0 0
4780 192 4 0.0000000000000000e+00 -6.5895185811719204e+00 -3.7171622476489761e+00 -1.5540981479409419e+02 0 0 0
4781 192 4 0.0000000000000000e+00 -3.8056338108186766e-01 3.1367519339800838e+00 -1.5134521945786810e+02 0 0 0
4479 180 4 0.0000000000000000e+00 -7.6941153316928947e+01 1.9494220227216651e+01 -1.5558928186143851e+02 0 0 0
2249 90 2 0.0000000000000000e+00 -6.4126990328069681e+01 1.4115264511016003e+01 -1.5795462096079339e+02 0 0 0
2250 90 1 0.0000000000000000e+00 -5.7790764298655276e+01 1.6115476947983975e+01 -1.5011582001802972e+02 0 0 0
275 11 1 0.0000000000000000e+00 -4.7765286316897139e+01 1.7047202105393804e+01 -1.5616154502372228e+02 0 0 0
4460 179 4 0.0000000000000000e+00 -3.5059798881538875e+01 1.5546203464029725e+01 -1.4961678385405915e+02 0 0 0
4461 179 4 0.0000000000000000e+00 -3.5528913772236571e+01 1.8761521550295832e+01 -1.5920735183334830e+02 0 0 0
1454 59 2 0.0000000000000000e+00 -2.2073348607317076e+01 1.2927459232692309e+01 -1.5286614098056154e+02 0 0 0
1455 59 2 0.0000000000000000e+00 -1.5072305198710993e+01 1.9931280893033705e+01 -1.5449524243060318e+02 0 0 0
1456 59 2 0.0000000000000000e+00 -5.1577503071578601e+00 1.7945018246749758e+01 -1.5216493263980428e+02 0 0 0
2230 90 2 0.0000000000000000e+00 -9.9743005241434247e+01 2.9202632252069041e+01 -1.5545228508890807e+02 0 0 0
4480 180 4 0.0000000000000000e+00 -6.8929631067765428e+01 2.4634007933351562e+01 -1.5239522950329035e+02 0 0 0
2248 90 2 0.0000000000000000e+00 -6.5699368792197021e+01 2.3107762426252034e+01 -1.6311631889380854e+02 0 0 0
3413 137 3 0.0000000000000000e+00 -5.8420072893813476e+01 3.4568940198833026e+01 -1.5330194221428090e+02 0 0 0
3412 137 4 0.0000000000000000e+00 -5.1263794598951492e+01 2.7135194901118624e+01 -1.5239479791327111e+02 0 0 0
3411 137 4 0.0000000000000000e+00 -4.1715224837065030e+01 2.6367499530363961e+01 -1.4928977851621082e+02 0 0 0
2245 90 2 0.0000000000000000e+00 -4.2158742666047260e+01 3.3132165295778620e+01 -1.6272136087926071e+02 0 0 0
407 17 1 0.0000000000000000e+00 -2.5461255518120883e+01 3.0698914821075778e+01 -1.5674825205085671e+02 0 0 0
408 17 2 0.0000000000000000e+00 -1.6468564635968267e+01 3.2246773278742786e+01 -1.5241544798403390e+02 0 0 0
409 17 2 0.0000000000000000e+00 -7.5012587587241857e+00 3.5275521881994386e+01 -1.4892524334713494e+02 0 0 0
4151 167 3 0.0000000000000000e+00 -5.1429235529570519e+01 -2.7110294369050681e+01 -1.3702714752321575e+02 0 0 0
1845 74 2 0.0000000000000000e+00 -4.6831173412616117e+01 -2.4514087418295944e+01 -1.4679596261167859e+02 0 0 0
1844 74 1 0.0000000000000000e+00 -4.2165056416431931e+01 -2.1161121021150876e+01 -1.3850912667653185e+02 0 0 0
267 11 2 0.0000000000000000e+00 -2.3813661049423047e+01 -1.8967142680794652e+01 -1.4193084503741679e+02 0 0 0
55 3 2 0.0000000000000000e+00 -5.2705399347944084e+00 -2.0977213975757511e+01 -1.4198474484327761e+02 0 0 0
54 3 2 0.0000000000000000e+00 1.7912666640019159e+00 -2.1378675646518126e+01 -1.3498880483831834e+02 0 0 0
3068 123 4 0.0000000000000000e+00 -4.0197416588775909e+01 -1.0559981474281933e+01 -1.4158619980894153e+02 0 0 0
3177 128 4 0.0000000000000000e+00 -2.1133312668669817e+01 -6.8868348254141294e+00 -1.3783447678167988e+02 0 0 0
3269 131 3 0.0000000000000000e+00 -4.8259058022867229e+00 -7.8849405892643132e+00 -1.3957876862965833e+02 0 0 0
56 3 2 0.0000000000000000e+00 2.9420261941976062e+00 -1.8319277085571287e+01 -1.4660055094538635e+02 0 0 0
3268 131 4 0.0000000000000000e+00 4.4309972970532012e+00 -6.3257730761044844e+00 -1.4250869215279121e+02 0 0 0
2062 83 2 0.0000000000000000e+00 -8.4543561247554038e+01 6.2906289040176429e+00 -1.4708192854553820e+02 0 0 0
4452 179 4 0.0000000000000000e+00 -5.7811520859902856e+01 -9.8573598635717830e-01 -1.4803551899361705e+02 0 0 0
2072 83 2 0.0000000000000000e+00 -6.4204584763686057e+01 4.6754306001242547e+00 -1.3908883269084910e+02 0 0 0
4453 179 4 0.0000000000000000e+00 -5.3543312399571853e+01 2.8904559892859103e+00 -1.3901667943031072e+02 0 0 0
3066 123 4 0.0000000000000000e+00 -4.0468040523896811e+01 7.7197206480227019e+00 -1.4010098487613652e+02 0 0 0
3067 123 4 0.0000000000000000e+00 -4.0556677954990938e+01 -9.8747205483403311e-01 -1.4527235196607566e+02 0 0 0
3176 128 3 0.0000000000000000e+00 -3.0000032083879269e+01 -4.8701084737771074e+00 -1.4141261258684870e+02 0 0 0
3178 128 4 0.0000000000000000e+00 -1.9392007463706587e+01 2.2348308018061700e+00 -1.4257765765183541e+02 0 0 0
1827 74 2 0.0000000000000000e+00 -1.1054784970143652e+01 -3.1440855715513599e-01 -1.3767069458520746e+02 0 0 0
1826 74 1 0.0000000000000000e+00 -1.2043775650349032e+01 -3.7051333029015354e+00 -1.4671713778173881e+02 0 0 0
1458 59 2 0.0000000000000000e+00 8.6781325520911445e-01 5.7663166684090585e+00 -1.3999525329115778e+02 0 0 0
2228 90 2 0.0000000000000000e+00 -9.9890506970156380e+01 1.7208948190342138e+01 -1.3902796316127461e+02 0 0 0
2061 83 2 0.0000000000000000e+00 -8.3041639611340315e+01 1.1246413894330548e+01 -1.3874049119590174e+02 0 0 0
3626 146 3 0.0000000000000000e+00 -6.3207507123356535e+01 1.8495943022347884e+01 -1.4006298107241599e+02 0 0 0
3064 123 4 0.0000000000000000e+00 -4.6631796661114166e+01 1.3778659445185543e+01 -1.4549773813539619e+02 0 0 0
1052 43 2 0.0000000000000000e+00 -3.8829164427581041e+01 2.1811029372930395e+01 -1.4077802557537260e+02 0 0 0
3065 123 4 0.0000000000000000e+00 -4.5368869200593295e+01 1.5195874339974969e+01 -1.3556454494457736e+02 0 0 0
4459 179 4 0.0000000000000000e+00 -3.0863560864698584e+01 1.4103173084165116e+01 -1.4024305954695222e+02 0 0 0
3179 128 4 0.0000000000000000e+00 -1.6242839204938903e+01 1.1663580097336435e+01 -1.3989921502633601e+02 0 0 0
1457 59 1 0.0000000000000000e+00 -7.1566639717808700e+00 1.0945204524416877e+01 -1.4455920242765765e+02 0 0 0
4782 192 3 0.0000000000000000e+00 3.3711341322922359e+00 1.1589194748369408e+01 -1.4771211537803777e+02 0 0 0
4783 192 4 0.0000000000000000e+00 2.0486449028171072e+00 1.9019962705529192e+01 -1.4128895707283760e+02 0 0 0
2229 90 2 0.0000000000000000e+00 -1.0082639785463934e+02 2.3211110384333299e+01 -1.4720916634568403e+02 0 0 0
3417 137 4 0.0000000000000000e+00 -9.1950090488171355e+01 3.3714468585241313e+01 -1.4851189464579997e+02 0 0 0
3418 137 4 0.0000000000000000e+00 -9.3315384722674551e+01 2.6550066191426325e+01 -1.4131685141066927e+02 0 0 0
2885 116 4 0.0000000000000000e+00 -8.6037600639445401e+01 3.4515222606815222e+01 -1.3949834840614071e+02 0 0 0
2018 81 2 0.0000000000000000e+00 -7.4253012940205039e+01 3.5061447263229212e+01 -1.4430392472409207e+02 0 0 0
4481 180 4 0.0000000000000000e+00 -5.9694339378785514e+01 2.5968195904175225e+01 -1.4791987005869163e+02 0 0 0
4482 180 3 0.0000000000000000e+00 -5.5232988331705975e+01 3.2443506002121765e+01 -1.4152311484725510e+02 0 0 0
1051 43 1 0.0000000000000000e+00 -4.7512167699559726e+01 2.6156851486328183e+01 -1.3649007196686640e+02 0 0 0
3410 137 4 0.0000000000000000e+00 -3.0986132241942599e+01 2.5734827286412539e+01 -1.4876223860249235e+02 0 0 0
1053 43 2 0.0000000000000000e+00 -3.4747483882023779e+01 3.1290314007279747e+01 -1.3853528983455104e+02 0 0 0
3409 137 4 0.0000000000000000e+00 -2.1941326837536653e+01 2.3342199723143501e+01 -1.4735469920141585e+02 0 0 0
3408 137 4 0.0000000000000000e+00 -1.2779453291771539e+01 2.5589142566406519e+01 -1.4362716289276409e+02 0 0 0
3407 137 3 0.0000000000000000e+00 -4.5512324279254628e+00 3.0793454978934044e+01 -1.4052787156383241e+02 0 0 0
4784 192 4 0.0000000000000000e+00 3.2748687670748398e+00 2.6481285170173180e+01 -1.3432558460190069e+02 0 0 0
264 11 2 0.0000000000000000e+00 -2.2689587873942227e+01 -3.5050088462894294e+01 -1.2106688428502720e+02 0 0 0
3072 123 4 0.0000000000000000e+00 -7.1457817921772460e+01 -2.3272358545309196e+01 -1.2122635265609330e+02 0 0 0
3071 123 4 0.0000000000000000e+00 -6.3307315466279476e+01 -1.9398779923663067e+01 -1.2481533585737380e+02 0 0 0
4152 167 4 0.0000000000000000e+00 -4.3959357990153009e+01 -2.7555599573480222e+01 -1.3014288024735689e+02 0 0 0
266 11 2 0.0000000000000000e+00 -2.3984495135574878e+01 -2.5664812525556936e+01 -1.3362577873259420e+02 0 0 0
4153 167 4 0.0000000000000000e+00 -3.5015110875183140e+01 -2.9043894728458902e+01 -1.2571329133410973e+02 0 0 0
1843 74 2 0.0000000000000000e+00 -3.3927694093342758e+01 -1.9963509268014818e+01 -1.3265398369737795e+02 0 0 0
1166 47 2 0.0000000000000000e+00 -2.2956741977817909e+01 -2.1565268235194754e+01 -1.1990919405652686e+02 0 0 0
265 11 2 0.0000000000000000e+00 -1.7481534452183958e+01 -3.1958572332466218e+01 -1.2921412906937545e+02 0 0 0
3070 123 4 0.0000000000000000e+00 -5.4709772400266772e+01 -1.6068546245197801e+01 -1.2920562901892214e+02 0 0 0
3069 123 3 0.0000000000000000e+00 -4.6993977546257959e+01 -1.1806542491385933e+01 -1.3409418938069643e+02 0 0 0
1168 47 2 0.0000000000000000e+00 -3.7584680829823206e+01 -9.8468526730474260e+00 -1.2195306467291782e+02 0 0 0
1842 74 2 0.0000000000000000e+00 -2.8311415048123486e+01 -1.1596835178751881e+01 -1.3000342454827401e+02 0 0 0
1167 47 2 0.0000000000000000e+00 -3.2589626211998144e+01 -1.8515774208911282e+01 -1.2173202415232826e+02 0 0 0
1841 74 2 0.0000000000000000e+00 -2.2459771289720333e+01 -7.3725758918201771e+00 -1.2324227000781799e+02 0 0 0
3270 131 4 0.0000000000000000e+00 -8.3753910337290431e+00 -1.0658593716329507e+01 -1.3090843436182237e+02 0 0 0
3271 131 4 0.0000000000000000e+00 -3.8399714105164722e+00 -9.3448043501561315e+00 -1.2219090152175542e+02 0 0 0
2059 83 2 0.0000000000000000e+00 -8.4837195025059216e+01 6.0833575563294398e+00 -1.2428536423716295e+02 0 0 0
584 24 2 0.0000000000000000e+00 -6.5971316065261476e+01 -4.7153335997847510e+00 -1.2308881039016228e+02 0 0 0
2073 83 2 0.0000000000000000e+00 -6.8150979260223110e+01 5.4444640047147539e+00 -1.3051431602620414e+02 0 0 0
4454 179 4 0.0000000000000000e+00 -5.3986020180501782e+01 7.8286668265908661e+00 -1.3085168590586565e+02 0 0 0
583 24 2 0.0000000000000000e+00 -5.7418507794839300e+01 -1.6756245807434378e+00 -1.2797935269855537e+02 0 0 0
582 24 1 0.0000000000000000e+00 -4.7715855582084771e+01 -1.1788130773730436e+00 -1.3029261321175807e+02 0 0 0
581 24 2 0.0000000000000000e+00 -3.7812708296902223e+01 2.8217270486874318e-01 -1.3153166903936088e+02 0 0 0
4455 179 4 0.0000000000000000e+00 -4.8120197752466638e+01 6.6392532707363419e+00 -1.2319592766846246e+02 0 0 0
580 24 2 0.0000000000000000e+00 -2.7892701202852756e+01 -1.3156047409757363e+00 -1.2938564983419914e+02 0 0 0
579 24 2 0.0000000000000000e+00 -1.7916594348482768e+01 -1.0483834508706471e+00 -1.2932776427781667e+02 0 0 0
1829 74 2 0.0000000000000000e+00 -1.0439100606104272e+01 -1.4001912373336106e-01 -1.2219614853290263e+02 0 0 0
578 24 2 0.0000000000000000e+00 -1.3559850166503040e+01 7.6524663162043893e+00 -1.3094727377569441e+02 0 0 0
1830 74 2 0.0000000000000000e+00 -1.9458476534258569e+01 4.2077436316094037e+00 -1.2019401831292586e+02 0 0 0
1828 74 2 0.0000000000000000e+00 -4.0708325181097251e+00 1.7450440156482181e+00 -1.3036116673164301e+02 0 0 0
2156 87 2 0.0000000000000000e+00 4.4720098027101107e+00 -1.5585878237530495e+00 -1.2451525338109484e+02 0 0 0
2157 87 1 0.0000000000000000e+00 -2.4727333237220241e+00 5.0798493982700466e+00 -1.2028746204357242e+02 0 0 0
2226 90 1 0.0000000000000000e+00 -1.0024336431168635e+02 2.1446415059955459e+01 -1.2815056185507152e+02 0 0 0
2227 90 2 0.0000000000000000e+00 -9.4558105038910398e+01 1.4376589232725212e+01 -1.3128120602039598e+02 0 0 0
2060 83 2 0.0000000000000000e+00 -8.1222589190158061e+01 1.4269837427865550e+01 -1.2904193256068942e+02 0 0 0
2075 83 1 0.0000000000000000e+00 -5.6433011676137241e+01 1.6429462282660992e+01 -1.2202945848396281e+02 0 0 0
2074 83 2 0.0000000000000000e+00 -6.4623885356391312e+01 1.4125216200105543e+01 -1.2655140354321748e+02 0 0 0
4456 179 4 0.0000000000000000e+00 -4.0876746045362161e+01 1.2868668959767355e+01 -1.2528461812760007e+02 0 0 0
4458 179 4 0.0000000000000000e+00 -2.4339533843410333e+01 8.8216773615857509e+00 -1.3384939299796105e+02 0 0 0
4457 179 3 0.0000000000000000e+00 -3.4053952825718504e+01 8.9543148725826196e+00 -1.3118402452238763e+02 0 0 0
1832 74 1 0.0000000000000000e+00 -3.2025433155580366e+01 1.7994113462797017e+01 -1.2454987805849643e+02 0 0 0
1831 74 2 0.0000000000000000e+00 -2.5040627388848446e+01 1.0979606363130026e+01 -1.2410707287907783e+02 0 0 0
3180 128 4 0.0000000000000000e+00 -2.0367270888311598e+01 1.8640582625367880e+01 -1.3428558643152732e+02 0 0 0
577 24 2 0.0000000000000000e+00 -6.1156036158914633e+00 1.3726826361289612e+01 -1.3419580025381268e+02 0 0 0
938 38 1 0.0000000000000000e+00 4.7609730618756645e+00 1.3024663034798824e+01 -1.2493337878417371e+02 0 0 0
2883 116 4 0.0000000000000000e+00 -9.6989097014375687e+01 3.4959069498785674e+01 -1.2323091415082956e+02 0 0 0
3419 137 3 0.0000000000000000e+00 -8.8486865229187444e+01 2.5851519527926943e+01 -1.3263478676893095e+02 0 0 0
3420 137 4 0.0000000000000000e+00 -9.0395604239018283e+01 2.6892646410538685e+01 -1.2268778465994166e+02 0 0 0
1125 45 1 0.0000000000000000e+00 -7.9851912198382919e+01 3.2633240775152181e+01 -1.3046003841184435e+02 0 0 0
2015 81 2 0.0000000000000000e+00 -6.5969738507343990e+01 3.3327576984696556e+01 -1.2081418197250230e+02 0 0 0
3627 146 4 0.0000000000000000e+00 -5.8059103701913266e+01 2.5757696888569892e+01 -1.3423424134406571e+02 0 0 0
3628 146 4 0.0000000000000000e+00 -5.7407587769024708e+01 2.7670763043777917e+01 -1.2418326178476839e+02 0 0 0
1833 74 2 0.0000000000000000e+00 -4.0350441400212645e+01 2.3727468699685240e+01 -1.2481833225969213e+02 0 0 0
4483 180 4 0.0000000000000000e+00 -5.0930817106332690e+01 3.4792091591149600e+01 -1.3196813176273446e+02 0 0 0
1834 74 2 0.0000000000000000e+00 -3.2927986186394051e+01 3.0741248947711721e+01 -1.2684536573587617e+02 0 0 0
1835 74 2 0.0000000000000000e+00 -2.3484547827683599e+01 3.3322520629560067e+01 -1.2521243875653300e+02 0 0 0
3181 128 4 0.0000000000000000e+00 -1.8713391320276948e+01 2.8287271068109646e+01 -1.3322462317302154e+02 0 0 0
1836 74 2 0.0000000000000000e+00 -1.6708934190355180e+01 2.6619083100241433e+01 -1.2298710448232055e+02 0 0 0
576 24 1 0.0000000000000000e+00 -6.9885141518332174e+00 2.3728800052841688e+01 -1.3225886987773325e+02 0 0 0
4785 192 4 0.0000000000000000e+00 4.0499244419083285e+00 2.7366337930656101e+01 -1.2436312284801227e+02 0 0 0
600 24 1 0.0000000000000000e+00 -1.2281533593197372e+01 -8.3361336681375036e+01 -1.0625969269063533e+02 0 0 0
3527 142 4 0.0000000000000000e+00 -8.0471224029067425e+00 -6.5510046586700355e+01 -1.0935862505404576e+02 0 0 0
1980 80 2 0.0000000000000000e+00 -7.7099103177539007e+01 -4.9081635680074413e+01 -1.0961676184914184e+02 0 0 0
1981 80 2 0.0000000000000000e+00 -6.7430687956040913e+01 -4.8245522819484499e+01 -1.1115808256412997e+02 0 0 0
3075 123 3 0.0000000000000000e+00 -5.8129725451489620e+01 -4.9452429969003788e+01 -1.1689737453055990e+02 0 0 0
4156 167 4 0.0000000000000000e+00 -4.7835086317982032e+01 -4.8600436429278062e+01 -1.1107592460284980e+02 0 0 0
3528 142 4 0.0000000000000000e+00 -7.3467383256905361e+00 -5.5406869788643412e+01 -1.1122061278942984e+02 0 0 0
1948 78 2 0.0000000000000000e+00 -1.3507705392879841e+00 -4.7331831758538527e+01 -1.0719970949478950e+02 0 0 0
2388 96 1 0.0000000000000000e+00 -7.6792507979752841e+01 -3.7182284025284851e+01 -1.1024856089475702e+02 0 0 0
3074 123 4 0.0000000000000000e+00 -6.1627836827410540e+01 -3.9860363528648072e+01 -1.1595487409455311e+02 0 0 0
1982 80 1 0.0000000000000000e+00 -5.8951551381820074e+01 -4.5330793541251431e+01 -1.0660997249737980e+02 0 0 0
4155 167 4 0.0000000000000000e+00 -4.3884647590508131e+01 -4.2701427770662761e+01 -1.1861442513880534e+02 0 0 0
4154 167 4 0.0000000000000000e+00 -4.0856523693873200e+01 -3.2840876506089387e+01 -1.1819162057916944e+02 0 0 0
3082 124 3 0.0000000000000000e+00 -3.1568343315849631e+01 -4.2541594327359590e+01 -1.0724156994628137e+02 0 0 0
3529 142 4 0.0000000000000000e+00 -9.0052255141891457e+00 -4.5118336659919649e+01 -1.1330249360394620e+02 0 0 0
263 11 1 0.0000000000000000e+00 -2.2069592914091611e+01 -4.0139547243382161e+01 -1.1233404144405007e+02 0 0 0
3530 142 4 0.0000000000000000e+00 -1.9798134826216198e+00 -3.8097805363521658e+01 -1.1291643838475713e+02 0 0 0
2389 96 2 0.0000000000000000e+00 -8.1832235327757445e+01 -2.9048580452407105e+01 -1.1343903719137772e+02 0 0 0
2390 96 2 0.0000000000000000e+00 -8.9808834059060757e+01 -2.3339430012569640e+01 -1.1067240485653078e+02 0 0 0
3073 123 4 0.0000000000000000e+00 -6.6785362983744193e+01 -3.1290658001041976e+01 -1.1774237789191956e+02 0 0 0
1663 67 1 0.0000000000000000e+00 -3.1724408330109657e+01 -2.0089184695150507e+01 -1.0854467366639760e+02 0 0 0
1165 47 2 0.0000000000000000e+00 -2.0220385608671535e+01 -2.8282766431122749e+01 -1.1284503650886867e+02 0 0 0
3274 131 4 0.0000000000000000e+00 -4.2326264858512825e+00 -2.2678396324678999e+01 -1.0560217823514407e+02 0 0 0
4746 190 4 0.0000000000000000e+00 -1.0659342225737670e+02 -8.1126403750665812e+00 -1.0698810012328589e+02 0 0 0
2057 83 1 0.0000000000000000e+00 -9.0656567104190430e+01 -6.2933557353415805e+00 -1.1042398676346372e+02 0 0 0
586 24 2 0.0000000000000000e+00 -7.5456268627664585e+01 -1.4228521283660509e+01 -1.0857269002897300e+02 0 0 0
585 24 2 0.0000000000000000e+00 -7.2199441143594129e+01 -7.0954006719080125e+00 -1.1469996176102028e+02 0 0 0
1665 67 2 0.0000000000000000e+00 -4.3755467003509828e+01 -1.3034372232675132e+01 -1.1220814489457602e+02 0 0 0
1664 67 2 0.0000000000000000e+00 -3.3950206011753977e+01 -1.1026615440551417e+01 -1.1238198681511884e+02 0 0 0
3087 124 4 0.0000000000000000e+00 -1.4843025585330192e+01 -7.7760987437974372e+00 -1.1326653756278024e+02 0 0 0
3273 131 4 0.0000000000000000e+00 3.4524248211935755e+00 -1.6592352400821600e+01 -1.0746593576233386e+02 0 0 0
3272 131 4 0.0000000000000000e+00 3.4486730218672372e+00 -1.0531764147275297e+01 -1.1561472508365937e+02 0 0 0
4745 190 4 0.0000000000000000e+00 -1.1454277642094092e+02 -2.5366018952460636e+00 -1.0945004404052321e+02 0 0 0
2007 81 1 0.0000000000000000e+00 -1.0661780274846313e+02 5.6690415419931641e+00 -1.0723026875409244e+02 0 0 0
2008 81 2 0.0000000000000000e+00 -9.7252831288752319e+01 3.9402061739524137e+00 -1.0986558311655729e+02 0 0 0
2058 83 2 0.0000000000000000e+00 -8.8712991239000075e+01 -2.0823919029690474e+00 -1.1958441670720912e+02 0 0 0
2009 81 2 0.0000000000000000e+00 -8.8084812324167629e+01 7.5255952635584107e+00 -1.0835021433730365e+02 0 0 0
3161 127 4 0.0000000000000000e+00 -7.6962190486190934e+01 4.0046119117697945e+00 -1.1897015348007989e+02 0 0 0
3162 127 4 0.0000000000000000e+00 -6.7313419588255158e+01 3.2643958325218487e+00 -1.1708814346940014e+02 0 0 0
3160 127 4 0.0000000000000000e+00 -7.8203110058720782e+01 -6.4422314863422048e-01 -1.1014274755412154e+02 0 0 0
1169 47 1 0.0000000000000000e+00 -3.7938963313768291e+01 -1.6994521631648007e-01 -1.1872205137261244e+02 0 0 0
2725 109 3 0.0000000000000000e+00 -4.8289717849814743e+01 -5.4288090471803274e-01 -1.1363481841597191e+02 0 0 0
2724 109 4 0.0000000000000000e+00 -4.1395926624285742e+01 -1.6660840493269062e+00 -1.0662337192457920e+02 0 0 0
1840 74 2 0.0000000000000000e+00 -2.4963238590245663e+01 -5.2654791364265243e+00 -1.1370733184492693e+02 0 0 0
1839 74 2 0.0000000000000000e+00 -2.8165307546266476e+01 4.1323999789911969e+00 -1.1095935538489842e+02 0 0 0
3300 132 3 0.0000000000000000e+00 -1.8777914510230175e+01 6.1132582518624956e-01 -1.0616961665421032e+02 0 0 0
2158 87 2 0.0000000000000000e+00 -9.6092942484307802e+00 7.1860963293203604e+00 -1.1241825301915839e+02 0 0 0
3089 124 4 0.0000000000000000e+00 3.6203156796250489e+00 -1.5367177737506704e-02 -1.1296773442510025e+02 0 0 0
3088 124 3 0.0000000000000000e+00 -6.8375555834232644e+00 -2.4546738229975382e+00 -1.1307779194745719e+02 0 0 0
2010 81 2 0.0000000000000000e+00 -8.0701845467669116e+01 1.3142409379781478e+01 -1.1120147745926060e+02 0 0 0
3163 127 3 0.0000000000000000e+00 -6.0146445565054115e+01 9.7659392443436293e+00 -1.1365662255227343e+02 0 0 0
3164 127 4 0.0000000000000000e+00 -6.4580249466772031e+01 1.7485253777381601e+01 -1.0932401724464809e+02 0 0 0
2165 87 2 0.0000000000000000e+00 -5.1665723246183028e+01 1.1074109870727767e+01 -1.0835530823470603e+02 0 0 0
2164 87 2 0.0000000000000000e+00 -4.4286826191294836e+01 1.7851038973197859e+01 -1.1143436844328306e+02 0 0 0
1170 47 2 0.0000000000000000e+00 -3.6361805827844627e+01 8.8232602457133442e+00 -1.1419136753522234e+02 0 0 0
1171 47 2 0.0000000000000000e+00 -3.2567139123889689e+01 1.5080431939149729e+01 -1.0676880077968094e+02 0 0 0
1838 74 1 0.0000000000000000e+00 -2.0616661580882074e+01 1.0498141631936488e+01 -1.1165720087837842e+02 0 0 0
1837 74 2 0.0000000000000000e+00 -1.8347434982177727e+01 1.8898861159060640e+01 -1.1590969764481569e+02 0 0 0
937 38 2 0.0000000000000000e+00 -1.5656380665620500e+00 1.7165453575120580e+01 -1.1832519923902446e+02 0 0 0
936 38 2 0.0000000000000000e+00 -4.8153547889787163e+00 2.1707387298517084e+01 -1.0991074612390652e+02 0 0 0
2881 116 4 0.0000000000000000e+00 -1.0578607596250272e+02 2.3174761675544115e+01 -1.0992836642743258e+02 0 0 0
1561 63 2 0.0000000000000000e+00 -1.0277207031083540e+02 3.4348651647426628e+01 -1.0993704878767969e+02 0 0 0
2882 116 3 0.0000000000000000e+00 -1.0174331221453170e+02 2.7728296248945679e+01 -1.1813254403443102e+02 0 0 0
3421 137 4 0.0000000000000000e+00 -8.5592438472204989e+01 2.9898727626682504e+01 -1.1470304983974552e+02 0 0 0
2011 81 2 0.0000000000000000e+00 -7.5304974291716974e+01 2.2088469619100731e+01 -1.1098059998862374e+02 0 0 0
2012 81 2 0.0000000000000000e+00 -6.8741783933990888e+01 2.7925426682168183e+01 -1.0598551586514094e+02 0 0 0
2014 81 2 0.0000000000000000e+00 -6.1658516569647958e+01 3.0699517941899312e+01 -1.1158181657414434e+02 0 0 0
3629 146 4 0.0000000000000000e+00 -5.4466391949869674e+01 2.4648853230294726e+01 -1.1529286323241010e+02 0 0 0
3630 146 4 0.0000000000000000e+00 -5.4421218605156938e+01 2.2172650454026574e+01 -1.0560673943246816e+02 0 0 0
2163 87 1 0.0000000000000000e+00 -4.0504034009338724e+01 2.6235674533951560e+01 -1.1521533006799686e+02 0 0 0
2162 87 2 0.0000000000000000e+00 -3.0940300620386910e+01 2.8643501595906798e+01 -1.1356247512122526e+02 0 0 0
2161 87 2 0.0000000000000000e+00 -2.3136817170297000e+01 2.6573892161219746e+01 -1.0827703550624221e+02 0 0 0
4787 192 4 0.0000000000000000e+00 -8.1771280505230450e+00 3.1014668263718814e+01 -1.0903757209286196e+02 0 0 0
4786 192 4 0.0000000000000000e+00 -1.3937347530517756e+00 2.9243420749186306e+01 -1.1653284966201996e+02 0 0 0
4165 167 4 0.0000000000000000e+00 -1.6469619898710476e+01 -9.8172146027156671e+01 -1.0010657393451780e+02 0 0 0
4164 167 4 0.0000000000000000e+00 -2.2536672889920435e+01 -8.9913840592593942e+01 -9.8267324947477178e+01 0 0 0
4166 167 4 0.0000000000000000e+00 -7.0168642144167528e+00 -9.4767420442691460e+01 -9.8546141130412153e+01 0 0 0
4167 167 4 0.0000000000000000e+00 2.9460296317893064e+00 -9.5631332624714176e+01 -1.0024889371648696e+02 0 0 0
1939 78 2 0.0000000000000000e+00 2.7822540115731953e+00 -9.2452406276148608e+01 -9.1095145862812984e+01 0 0 0
4163 167 3 0.0000000000000000e+00 -2.3729312085367816e+01 -8.1906837074389841e+01 -9.2009641832621014e+01 0 0 0
599 24 2 0.0000000000000000e+00 -1.2771433350424115e+01 -8.2782063546562540e+01 -9.6065985737216337e+01 0 0 0
3526 142 3 0.0000000000000000e+00 -6.5462246696155706e+00 -7.3784265943827265e+01 -1.0398361901325227e+02 0 0 0
4158 167 4 0.0000000000000000e+00 -4.6442303117831855e+01 -6.0119581613993383e+01 -1.0148289679321432e+02 0 0 0
4159 167 4 0.0000000000000000e+00 -4.4136161327883066e+01 -6.8694966072697000e+01 -9.7387536973791470e+01 0 0 0
4160 167 4 0.0000000000000000e+00 -3.4575532588985844e+01 -6.7193876495709887e+01 -9.4657260474429222e+01 0 0 0
3976 160 3 0.0000000000000000e+00 -1.1612043114448147e+00 -6.8222580672485378e+01 -9.2707501313112132e+01 0 0 0