LAMMPS data file via write_data, version 5 Jun 2019, timestep = 360000000

5000 atoms
4 atom types
5294 bonds
3 bond types
4600 angles
2 angle types

-2.5000000000000000e+02 2.5000000000000000e+02 xlo xhi
-2.5000000000000000e+02 2.5000000000000000e+02 ylo yhi
-2.5000000000000000e+02 2.5000000000000000e+02 zlo zhi

Masses

1 1000
2 1000
3 1000
4 1000

Pair Coeffs # lj/cut

1 0.3 10
2 0.3 10
3 0.3 10
4 0.3 10

Bond Coeffs # harmonic

1 3 10
2 3 10
3 3 11.22

Angle Coeffs # cosine

1 2
2 2

Atoms # full

4433 178 4 0.0000000000000000e+00 -2.7826227676479172e+00 5.0943559525270267e+01 -1.9285071257193897e+02 0 0 0
4432 178 3 0.0000000000000000e+00 -1.1615375792305333e+01 5.7050381567146559e+01 -1.9283127861990809e+02 0 0 0
1399 56 2 0.0000000000000000e+00 -4.7348149815058299e+01 -1.1680579330701766e+01 -1.8389929019517007e+02 0 0 0
1398 56 2 0.0000000000000000e+00 -4.2274027413182786e+01 -3.5450814728003182e+00 -1.8169048469242833e+02 0 0 0
1395 56 2 0.0000000000000000e+00 -5.8697294776229604e+01 1.8549854991534783e+01 -1.8130664708432087e+02 0 0 0
4475 179 3 0.0000000000000000e+00 -1.4770330449038127e+01 1.4943364486512086e+01 -1.9086423614228150e+02 0 0 0
2025 81 1 0.0000000000000000e+00 -8.1222520830182070e+00 1.4377246341395567e+01 -1.8195814298861816e+02 0 0 0
4500 180 3 0.0000000000000000e+00 -6.4371183062836209e+01 2.6756862275557818e+01 -1.8495430389834362e+02 0 0 0
4499 180 4 0.0000000000000000e+00 -6.4873082048922328e+01 3.6578497392387909e+01 -1.8309962177248278e+02 0 0 0
1026 42 1 0.0000000000000000e+00 -5.4500261845579239e+01 3.1708041667453333e+01 -1.8636331528839042e+02 0 0 0
1027 42 2 0.0000000000000000e+00 -4.5178982526267475e+01 3.4299499380335774e+01 -1.8298373489987625e+02 0 0 0
4474 179 4 0.0000000000000000e+00 -1.5135805168275434e+01 2.5057047209937899e+01 -1.8903645433505963e+02 0 0 0
4473 179 4 0.0000000000000000e+00 -2.2361848629007486e+01 2.8900359903782562e+01 -1.8275672683839838e+02 0 0 0
4472 179 4 0.0000000000000000e+00 -1.2804668136562817e+01 2.9815191156326637e+01 -1.7859923886780177e+02 0 0 0
4498 180 4 0.0000000000000000e+00 -5.8462652525810206e+01 4.2876962357502627e+01 -1.8835961073566205e+02 0 0 0
3193 128 4 0.0000000000000000e+00 -2.3521846016820863e+01 4.9760606028515269e+01 -1.7934742880792209e+02 0 0 0
4495 180 4 0.0000000000000000e+00 -5.8704830675462880e+01 5.5859617680825657e+01 -1.7897113176868427e+02 0 0 0
4496 180 4 0.0000000000000000e+00 -5.4087417863574402e+01 6.1547758050561242e+01 -1.8589475567506304e+02 0 0 0
4497 180 4 0.0000000000000000e+00 -5.2797043983774103e+01 5.1689454598547378e+01 -1.8765985580052580e+02 0 0 0
4431 178 4 0.0000000000000000e+00 -1.7929051532578352e+01 5.2339430788725750e+01 -1.8665829294005189e+02 0 0 0
4430 178 4 0.0000000000000000e+00 -1.2136758676043545e+01 5.5465264043297104e+01 -1.7882958407714867e+02 0 0 0
2142 86 2 0.0000000000000000e+00 4.8600446069713987e-01 6.0278924098776962e+01 -1.8713375489236560e+02 0 0 0
3052 123 4 0.0000000000000000e+00 -6.0779244608275064e+01 -3.1520110360574840e+01 -1.6781146082178199e+02 0 0 0
3051 123 3 0.0000000000000000e+00 -6.1561760193324190e+01 -2.3681290953244609e+01 -1.7456596821103648e+02 0 0 0
2241 90 2 0.0000000000000000e+00 -3.5817861351324453e+01 -2.2407929035246237e+01 -1.7312318648260157e+02 0 0 0
2242 90 2 0.0000000000000000e+00 -2.5774464144562355e+01 -2.4336056193359081e+01 -1.7124304430386650e+02 0 0 0
4464 179 4 0.0000000000000000e+00 -9.2728667965506055e+00 -2.0473335083027631e+01 -1.6926958847725572e+02 0 0 0
4465 179 4 0.0000000000000000e+00 -1.0813400775613100e+00 -1.9658751179392944e+01 -1.7488539854380201e+02 0 0 0
1400 56 1 0.0000000000000000e+00 -5.2863085834709885e+01 -1.6444094421714290e+01 -1.7711553710935382e+02 0 0 0
2239 90 2 0.0000000000000000e+00 -4.5492493448877646e+01 -8.3880005569680414e+00 -1.6595094103049263e+02 0 0 0
2240 90 2 0.0000000000000000e+00 -3.9675492638134173e+01 -1.2952815561844501e+01 -1.7279140749763181e+02 0 0 0
1397 56 2 0.0000000000000000e+00 -4.7599088900429855e+01 3.5651877644867938e+00 -1.7697626031306595e+02 0 0 0
2024 81 2 0.0000000000000000e+00 -1.3312552048558471e+01 9.1108999209453589e+00 -1.7476101468721811e+02 0 0 0
2023 81 2 0.0000000000000000e+00 -1.4644666088364096e+01 8.3041653616022959e+00 -1.6448746840056199e+02 0 0 0
1394 56 1 0.0000000000000000e+00 -5.7638368166497543e+01 2.1752942741091513e+01 -1.7195255909883906e+02 0 0 0
1396 56 2 0.0000000000000000e+00 -5.3640378857517241e+01 1.1916133425759211e+01 -1.7540108623248787e+02 0 0 0
4491 180 4 0.0000000000000000e+00 -4.7275926473974828e+01 2.0689784317241607e+01 -1.7297098166864467e+02 0 0 0
4490 180 4 0.0000000000000000e+00 -4.6161715642562946e+01 1.4487679268224872e+01 -1.6523555917594078e+02 0 0 0
653 27 2 0.0000000000000000e+00 -3.2377189991235049e+01 1.3091159385238029e+01 -1.7043464624120750e+02 0 0 0
654 27 2 0.0000000000000000e+00 -3.1807057888021262e+01 2.2741037646968437e+01 -1.7298995920266645e+02 0 0 0
3189 128 4 0.0000000000000000e+00 -2.0240174077591064e+01 1.7094107277203207e+01 -1.6507054132013488e+02 0 0 0
1393 56 2 0.0000000000000000e+00 -5.9145846191350223e+01 3.1101437990127593e+01 -1.6840147095835903e+02 0 0 0
4492 180 4 0.0000000000000000e+00 -5.1144660534281144e+01 2.9806953196273518e+01 -1.7425630363899384e+02 0 0 0
655 27 2 0.0000000000000000e+00 -3.2542883810052608e+01 3.1414159719923127e+01 -1.6758394605468706e+02 0 0 0
3190 128 4 0.0000000000000000e+00 -2.1578481095409025e+01 2.5601186722898788e+01 -1.6978761799102060e+02 0 0 0
3191 128 4 0.0000000000000000e+00 -2.1299178629686718e+01 3.5371471605373223e+01 -1.7232775259958413e+02 0 0 0
4471 179 4 0.0000000000000000e+00 -3.2616144378176903e+00 2.7396155019272040e+01 -1.7527361790532265e+02 0 0 0
4494 180 3 0.0000000000000000e+00 -5.6312824135064936e+01 4.8421938051397440e+01 -1.7325367784896437e+02 0 0 0
1600 64 1 0.0000000000000000e+00 -6.6029131944510951e+01 4.8535361693079118e+01 -1.6755378591178484e+02 0 0 0
1028 42 2 0.0000000000000000e+00 -4.1075415156325541e+01 3.9626464575448566e+01 -1.7561046513934360e+02 0 0 0
4493 180 4 0.0000000000000000e+00 -5.1767703873642269e+01 3.9963663334843673e+01 -1.7333926759887217e+02 0 0 0
3425 137 3 0.0000000000000000e+00 -4.1541248740863274e+01 3.8529191094423680e+01 -1.6558449942740063e+02 0 0 0
1029 42 2 0.0000000000000000e+00 -3.4453809422760536e+01 4.5044252025058285e+01 -1.7108835562428723e+02 0 0 0
3192 128 4 0.0000000000000000e+00 -1.6928348724718965e+01 4.2575632427423329e+01 -1.7778246374799838e+02 0 0 0
867 35 2 0.0000000000000000e+00 -2.0287605283107894e+01 5.0255757212450504e+01 -1.6592977580587501e+02 0 0 0
4126 166 3 0.0000000000000000e+00 -4.0393104248310951e+00 4.3378642747286229e+01 -1.6453573856193290e+02 0 0 0
1599 64 2 0.0000000000000000e+00 -6.4680781193532184e+01 5.8368133255858041e+01 -1.7108080321232958e+02 0 0 0
1598 64 2 0.0000000000000000e+00 -5.5313571980386399e+01 6.2980790134190528e+01 -1.7183874917126519e+02 0 0 0
3196 128 4 0.0000000000000000e+00 -4.9111761778565352e+01 5.4314826293185057e+01 -1.6725278537465272e+02 0 0 0
1597 64 2 0.0000000000000000e+00 -4.5457125211160282e+01 6.3091483810567773e+01 -1.6934308080142409e+02 0 0 0
3195 128 4 0.0000000000000000e+00 -4.0795393015922180e+01 5.2199257393123531e+01 -1.7230435656495959e+02 0 0 0
3194 128 3 0.0000000000000000e+00 -3.1784187598667074e+01 5.4125689275281850e+01 -1.7696197167927249e+02 0 0 0
868 35 2 0.0000000000000000e+00 -1.9364804901864030e+01 5.9404065990106922e+01 -1.7019827122464139e+02 0 0 0
4429 178 4 0.0000000000000000e+00 -3.5992943452817663e+00 5.8690327759158009e+01 -1.7453798829995506e+02 0 0 0
4128 166 4 0.0000000000000000e+00 -3.2609090828623604e+00 5.9526672336784770e+01 -1.6453985229442614e+02 0 0 0
4127 166 4 0.0000000000000000e+00 -1.3130608010549167e+00 5.0859815567910410e+01 -1.6994889773825281e+02 0 0 0
3060 123 4 0.0000000000000000e+00 -2.4071185151503048e+01 -4.5156842678387420e+01 -1.5378278734152900e+02 0 0 0
3059 123 4 0.0000000000000000e+00 -3.1000218219759724e+01 -3.7917537058276025e+01 -1.5604914688502959e+02 0 0 0
4462 179 4 0.0000000000000000e+00 -9.6681439871953287e+00 -3.1391500892060954e+01 -1.5375664659931235e+02 0 0 0
3053 123 4 0.0000000000000000e+00 -5.9733866948514461e+01 -2.7360067677830429e+01 -1.5824914340155493e+02 0 0 0
3054 123 4 0.0000000000000000e+00 -4.9739141016641462e+01 -2.8443023435032575e+01 -1.5561519958780733e+02 0 0 0
3055 123 4 0.0000000000000000e+00 -4.4719569226245937e+01 -2.0290970877632418e+01 -1.5830858396924128e+02 0 0 0
3058 123 4 0.0000000000000000e+00 -3.1072329337535656e+01 -2.7877374057185779e+01 -1.5547363608023551e+02 0 0 0
3057 123 3 0.0000000000000000e+00 -3.2308556942946311e+01 -1.9139832925042601e+01 -1.6076974402163151e+02 0 0 0
2243 90 2 0.0000000000000000e+00 -2.0801488316801972e+01 -2.4586756216078243e+01 -1.6257753696854047e+02 0 0 0
2244 90 1 0.0000000000000000e+00 -1.9165245771268850e+01 -2.5472863698103865e+01 -1.5290438072928538e+02 0 0 0
4463 179 3 0.0000000000000000e+00 -1.0527787826221088e+01 -2.3463640594941392e+01 -1.5982613736031530e+02 0 0 0
2238 90 1 0.0000000000000000e+00 -5.0613578624436975e+01 -5.1732207266887764e+00 -1.5843917772448719e+02 0 0 0
3056 123 4 0.0000000000000000e+00 -3.8857802521524391e+01 -1.1891139316479192e+01 -1.5810921800111316e+02 0 0 0
401 17 1 0.0000000000000000e+00 -2.8017256123222605e+01 -1.2544105503313730e+01 -1.5243444720618911e+02 0 0 0
402 17 2 0.0000000000000000e+00 -2.0405723987280801e+01 -1.3625564243570571e+01 -1.5861290580849783e+02 0 0 0
3406 137 4 0.0000000000000000e+00 -4.4380857587375893e+00 -1.6602304190187354e+01 -1.5106357751272046e+02 0 0 0
403 17 2 0.0000000000000000e+00 -1.1250961767734612e+01 -1.0382851449952552e+01 -1.5523977232693591e+02 0 0 0
2021 81 2 0.0000000000000000e+00 -2.8760938460759746e+01 -1.2099485975883004e+00 -1.5372978311805048e+02 0 0 0
4489 180 4 0.0000000000000000e+00 -4.0683332599313630e+01 8.4278179422839781e+00 -1.5938346763591747e+02 0 0 0
4488 180 3 0.0000000000000000e+00 -3.2918475293269267e+01 9.0518771760285031e+00 -1.5239845015919440e+02 0 0 0
2022 81 2 0.0000000000000000e+00 -2.1663782651829408e+01 5.4029286330574404e+00 -1.5799759628694278e+02 0 0 0
404 17 2 0.0000000000000000e+00 -4.5370248173621306e+00 -3.2108546216588296e+00 -1.5368661631389648e+02 0 0 0
4401 177 3 0.0000000000000000e+00 -6.2857021940165893e+01 1.9722818191994293e+01 -1.6233870548118159e+02 0 0 0
2453 99 2 0.0000000000000000e+00 -6.1004088575403770e+01 2.1455042361977615e+01 -1.5195561999148862e+02 0 0 0
2452 99 2 0.0000000000000000e+00 -5.3615568058558701e+01 1.4631294653756482e+01 -1.5155302106983427e+02 0 0 0
3423 137 4 0.0000000000000000e+00 -4.3128707759274228e+01 2.2454549362403966e+01 -1.5828675378395576e+02 0 0 0
652 27 2 0.0000000000000000e+00 -3.0363696723742613e+01 1.2493268624981487e+01 -1.6074933963806959e+02 0 0 0
651 27 1 0.0000000000000000e+00 -2.9175039682801941e+01 1.9664099663224746e+01 -1.5329261825426951e+02 0 0 0
3188 128 3 0.0000000000000000e+00 -1.8486877112703848e+01 1.5806409136656669e+01 -1.5544898011646620e+02 0 0 0
1575 63 1 0.0000000000000000e+00 -7.4668887135810650e+01 3.5815043149833954e+01 -1.5216771068078134e+02 0 0 0
2454 99 2 0.0000000000000000e+00 -6.7018228046849245e+01 2.9176672372085260e+01 -1.4998379306073289e+02 0 0 0
4403 177 4 0.0000000000000000e+00 -5.5301251044268227e+01 3.1629112069798037e+01 -1.5133237470332176e+02 0 0 0
4402 177 4 0.0000000000000000e+00 -5.5024565831577249e+01 2.5980511755244336e+01 -1.5941012338786874e+02 0 0 0
3424 137 4 0.0000000000000000e+00 -4.6620968574486369e+01 3.1136141514418458e+01 -1.6288617635636425e+02 0 0 0
2458 99 2 0.0000000000000000e+00 -4.1623853065820761e+01 3.4185651051043095e+01 -1.5456053786084840e+02 0 0 0
657 27 1 0.0000000000000000e+00 -3.1523669184810579e+01 2.9807049014840054e+01 -1.5499144709635152e+02 0 0 0
2894 116 3 0.0000000000000000e+00 -2.0937167700274202e+01 3.3409403760830095e+01 -1.5299100224114164e+02 0 0 0
2895 116 4 0.0000000000000000e+00 -1.1243908707188002e+01 3.3667941165728983e+01 -1.5035194750210030e+02 0 0 0
1391 56 2 0.0000000000000000e+00 -6.9585144372788236e+01 4.4322316695113578e+01 -1.5784496832216990e+02 0 0 0
1392 56 2 0.0000000000000000e+00 -6.3744973518399497e+01 3.8658468286535879e+01 -1.6367510438359881e+02 0 0 0
2456 99 2 0.0000000000000000e+00 -5.8186284454016267e+01 4.3059776294352631e+01 -1.5761579494651707e+02 0 0 0
2455 99 2 0.0000000000000000e+00 -6.3904228781354682e+01 3.8573308263393336e+01 -1.5046163698661343e+02 0 0 0
2457 99 1 0.0000000000000000e+00 -4.7999573994389564e+01 4.1440744160925234e+01 -1.5738881684891408e+02 0 0 0
656 27 2 0.0000000000000000e+00 -3.2834018737496521e+01 3.8765280152725786e+01 -1.6014510513134164e+02 0 0 0
2135 86 2 0.0000000000000000e+00 -2.3583641199811279e+01 4.8201124885730231e+01 -1.5645379719283159e+02 0 0 0
2134 86 2 0.0000000000000000e+00 -1.4809000167733300e+01 4.3650443980898366e+01 -1.5433446505299878e+02 0 0 0
2133 86 2 0.0000000000000000e+00 -5.1659218976656067e+00 4.6893428209835086e+01 -1.5566276890393928e+02 0 0 0
1553 63 2 0.0000000000000000e+00 -9.3311984369104749e+01 5.8459114709814926e+01 -1.5461010881545687e+02 0 0 0
1552 63 2 0.0000000000000000e+00 -9.4053818559815923e+01 6.3840608593793121e+01 -1.6281316762088420e+02 0 0 0
1389 56 2 0.0000000000000000e+00 -7.8622470996532527e+01 6.2070499032108962e+01 -1.5969472387007005e+02 0 0 0
1390 56 2 0.0000000000000000e+00 -7.5126398786119708e+01 5.2551104059503444e+01 -1.5776057337845396e+02 0 0 0
3197 128 4 0.0000000000000000e+00 -5.8534214393702413e+01 5.5326545356046893e+01 -1.6309703593514760e+02 0 0 0
3198 128 4 0.0000000000000000e+00 -6.8160228970423219e+01 5.9738693296935210e+01 -1.6183139960319960e+02 0 0 0
4408 177 4 0.0000000000000000e+00 -6.3715135119643392e+01 6.0636756622731049e+01 -1.5240082824002087e+02 0 0 0
4407 177 3 0.0000000000000000e+00 -6.2438312023019243e+01 5.0801053362639237e+01 -1.5255871658723015e+02 0 0 0
1182 48 1 0.0000000000000000e+00 -5.2482178159304965e+01 5.3873408844409141e+01 -1.5532432852337578e+02 0 0 0
1183 48 2 0.0000000000000000e+00 -5.2136520550141540e+01 6.2828991379945151e+01 -1.6062801858688201e+02 0 0 0
1030 42 2 0.0000000000000000e+00 -3.4251527672333339e+01 5.1521555288576984e+01 -1.6326031425503916e+02 0 0 0
1031 42 2 0.0000000000000000e+00 -3.8899014945135960e+01 5.2017527810740326e+01 -1.5392980564534406e+02 0 0 0
2136 86 2 0.0000000000000000e+00 -2.7317274828837363e+01 5.7187708319037711e+01 -1.5728194047018323e+02 0 0 0
1596 64 2 0.0000000000000000e+00 -3.9891595411167934e+01 6.3621649667023199e+01 -1.6094279881490286e+02 0 0 0
1595 64 2 0.0000000000000000e+00 -3.4864270119077069e+01 6.3966334809943177e+01 -1.5147083226906940e+02 0 0 0
866 35 2 0.0000000000000000e+00 -1.4888146309548288e+01 5.5149437390893375e+01 -1.5896214148539244e+02 0 0 0
2899 116 4 0.0000000000000000e+00 -1.7551600391478857e+01 6.4099426554229453e+01 -1.4978662265964357e+02 0 0 0
865 35 2 0.0000000000000000e+00 -1.0581012104432691e+01 5.6285002635885213e+01 -1.5014284776809794e+02 0 0 0
4779 192 4 0.0000000000000000e+00 7.6959036195053454e-01 -6.5056757229501599e+01 -1.3799872299339685e+02 0 0 0
3061 123 4 0.0000000000000000e+00 -1.9693176046946931e+01 -4.6396273454308385e+01 -1.4492374753689245e+02 0 0 0
1454 59 2 0.0000000000000000e+00 -1.8944386523244103e+00 -4.5670512821804017e+01 -1.4194822346099852e+02 0 0 0
4459 179 4 0.0000000000000000e+00 -3.5743159730681995e+01 -3.6507559107613140e+01 -1.4224644498632841e+02 0 0 0
4461 179 4 0.0000000000000000e+00 -1.6899846836112960e+01 -3.6031630008441780e+01 -1.4839251796739330e+02 0 0 0
4460 179 4 0.0000000000000000e+00 -2.6368008850776921e+01 -3.8176315824208302e+01 -1.4661909362504244e+02 0 0 0
3062 123 4 0.0000000000000000e+00 -1.9520665288939643e+01 -4.0903401407510209e+01 -1.3596738862391413e+02 0 0 0
1453 59 2 0.0000000000000000e+00 5.5584595476022558e-01 -3.8858631560693922e+01 -1.4863996159330117e+02 0 0 0
2245 90 2 0.0000000000000000e+00 -2.1894970205865413e+01 -2.7761851971138210e+01 -1.4293176758376319e+02 0 0 0
3407 137 3 0.0000000000000000e+00 -1.3098415905067430e+01 -1.9321738644788056e+01 -1.4752621295699100e+02 0 0 0
1452 59 2 0.0000000000000000e+00 -3.9387883125225929e+00 -3.1103542006100511e+01 -1.4392239819195800e+02 0 0 0
1451 59 1 0.0000000000000000e+00 -1.2097100439197835e+01 -2.6822904318882838e+01 -1.3906455515181523e+02 0 0 0
3000 120 3 0.0000000000000000e+00 -4.3798550943508999e+01 -6.5081350727342029e+00 -1.4960332546327336e+02 0 0 0
2999 120 4 0.0000000000000000e+00 -4.1806505641704213e+01 -1.0355965577871308e+01 -1.4023577978552694e+02 0 0 0
3409 137 4 0.0000000000000000e+00 -3.0228766943085326e+01 -1.2966350766547754e+01 -1.4055098904141698e+02 0 0 0
3408 137 4 0.0000000000000000e+00 -2.0121276158330893e+01 -1.5374281914083870e+01 -1.4100069724564844e+02 0 0 0
2236 90 2 0.0000000000000000e+00 -6.1037960225212906e+01 -1.7361725310126821e+00 -1.4181312985494196e+02 0 0 0
2235 90 2 0.0000000000000000e+00 -6.3181120052476395e+01 7.8289716735918002e+00 -1.4543476114625446e+02 0 0 0
2237 90 2 0.0000000000000000e+00 -5.4766902697254402e+01 -3.8765738212903860e+00 -1.4924876103472715e+02 0 0 0
3414 137 4 0.0000000000000000e+00 -5.4212091392680350e+01 6.4983353543637401e+00 -1.3762233318873319e+02 0 0 0
3413 137 3 0.0000000000000000e+00 -4.8906914766050122e+01 -1.4901110153443891e+00 -1.4004506229614466e+02 0 0 0
2451 99 1 0.0000000000000000e+00 -4.4676017825756141e+01 9.1540940147423715e+00 -1.4918611910091195e+02 0 0 0
2019 81 1 0.0000000000000000e+00 -3.8750847548296889e+01 1.9902753076816164e+00 -1.3731887225457103e+02 0 0 0
2020 81 2 0.0000000000000000e+00 -3.5576960314736013e+01 -2.1485297007833215e+00 -1.4613041252250281e+02 0 0 0
3186 128 4 0.0000000000000000e+00 -2.4458297869898317e+01 2.1122066991020447e+00 -1.4323956438603000e+02 0 0 0
3187 128 4 0.0000000000000000e+00 -1.8612313556888733e+01 8.6522666146947405e+00 -1.4824804444142427e+02 0 0 0
2233 90 2 0.0000000000000000e+00 -7.1044167449580272e+01 2.1184399077335065e+01 -1.4486641569401417e+02 0 0 0
2232 90 1 0.0000000000000000e+00 -8.0589860991903336e+01 2.1411235962454729e+01 -1.4235631405167703e+02 0 0 0
2234 90 2 0.0000000000000000e+00 -6.1677654514603368e+01 1.7540542292314093e+01 -1.4266958135545909e+02 0 0 0
2460 99 2 0.0000000000000000e+00 -5.0515873142273954e+01 2.0067745493584543e+01 -1.4436666510758980e+02 0 0 0
2461 99 2 0.0000000000000000e+00 -4.7748684639320672e+01 1.5930622184417087e+01 -1.3546869501784590e+02 0 0 0
3422 137 4 0.0000000000000000e+00 -4.0078980072283116e+01 1.8729859625850349e+01 -1.4934730736381545e+02 0 0 0
4487 180 4 0.0000000000000000e+00 -2.9317293780422947e+01 1.2556503955229996e+01 -1.4344772672852403e+02 0 0 0
3421 137 4 0.0000000000000000e+00 -3.9393301123427328e+01 2.0799339780066536e+01 -1.3994529931174452e+02 0 0 0
659 27 2 0.0000000000000000e+00 -2.6605330409968623e+01 2.1449101739165222e+01 -1.3812188350131530e+02 0 0 0
2901 117 3 0.0000000000000000e+00 -8.6623515535743053e+01 3.0343063887658783e+01 -1.4434006306126864e+02 0 0 0
2888 116 3 0.0000000000000000e+00 -7.1310026599398327e+01 3.2488983515300717e+01 -1.4234640356743691e+02 0 0 0
2889 116 4 0.0000000000000000e+00 -6.2106221435060682e+01 2.8059750789068971e+01 -1.3934444752422704e+02 0 0 0
2459 99 2 0.0000000000000000e+00 -4.6297707156346711e+01 2.7858671253261505e+01 -1.4817697416230504e+02 0 0 0
2891 116 4 0.0000000000000000e+00 -4.4738439971826431e+01 2.9747507597886543e+01 -1.3860910577829989e+02 0 0 0
4404 177 4 0.0000000000000000e+00 -5.3395074476093519e+01 3.6044440555894809e+01 -1.4311582813329539e+02 0 0 0
2892 116 4 0.0000000000000000e+00 -3.7372275621310180e+01 3.1806144091722437e+01 -1.4486863839477041e+02 0 0 0
658 27 2 0.0000000000000000e+00 -2.7184163920052523e+01 2.7412757980765520e+01 -1.4577320361497760e+02 0 0 0
1178 48 2 0.0000000000000000e+00 -2.9694279249385712e+01 3.6517899976833206e+01 -1.3814943998802926e+02 0 0 0
1177 48 2 0.0000000000000000e+00 -2.0378276509050515e+01 3.4061547527976465e+01 -1.3932956624559600e+02 0 0 0
2687 108 4 0.0000000000000000e+00 -7.3969235372402533e+00 2.8299540254703775e+01 -1.4063697286842466e+02 0 0 0
2686 108 4 0.0000000000000000e+00 8.6952046240615921e-02 2.7050730905011235e+01 -1.4697457639549904e+02 0 0 0
2902 117 4 0.0000000000000000e+00 -9.0335962259089285e+01 3.8932852239664072e+01 -1.3963167218349963e+02 0 0 0
2903 117 4 0.0000000000000000e+00 -9.2113374192011293e+01 4.8411805583009418e+01 -1.4279408734788350e+02 0 0 0
1574 63 2 0.0000000000000000e+00 -7.2655183185540835e+01 4.5252554260235456e+01 -1.4913134555251338e+02 0 0 0
1555 63 2 0.0000000000000000e+00 -8.1483945258036584e+01 4.6345919105625420e+01 -1.4325415654263836e+02 0 0 0
1556 63 2 0.0000000000000000e+00 -7.3306667163290200e+01 4.5765770601079417e+01 -1.3742808707887244e+02 0 0 0
4406 177 4 0.0000000000000000e+00 -6.4006578506010356e+01 4.6297705479551446e+01 -1.4380342200248759e+02 0 0 0
4405 177 4 0.0000000000000000e+00 -5.9154703113530871e+01 4.1614386052931359e+01 -1.3612539566158000e+02 0 0 0
1181 48 2 0.0000000000000000e+00 -5.2991067712802050e+01 4.8307447727519822e+01 -1.4716396788277640e+02 0 0 0
1180 48 2 0.0000000000000000e+00 -4.7187897650035325e+01 4.5253217057446179e+01 -1.3971753604457493e+02 0 0 0
2893 116 4 0.0000000000000000e+00 -2.9372452870425093e+01 3.7241128157997110e+01 -1.4880835921816183e+02 0 0 0
1179 48 2 0.0000000000000000e+00 -3.7458229369695502e+01 4.2276163696335843e+01 -1.4083767191917624e+02 0 0 0
2897 116 4 0.0000000000000000e+00 -1.6816638379331323e+01 4.6539626635996541e+01 -1.4467724185064952e+02 0 0 0
2896 116 4 0.0000000000000000e+00 -9.5525596027895556e+00 3.9536045395391625e+01 -1.4202219661637147e+02 0 0 0
674 27 2 0.0000000000000000e+00 -9.5028014204453104e-01 4.3547956181813227e+01 -1.4542625828802605e+02 0 0 0
1554 63 2 0.0000000000000000e+00 -8.6553133766123480e+01 5.2560426343183295e+01 -1.4953851778102819e+02 0 0 0
2904 117 4 0.0000000000000000e+00 -9.0659980271002453e+01 5.9167185218293049e+01 -1.4265939840915112e+02 0 0 0
1573 63 2 0.0000000000000000e+00 -7.3750443502235129e+01 5.5048640762241760e+01 -1.4617474441541668e+02 0 0 0
1572 63 2 0.0000000000000000e+00 -7.3065104612047435e+01 6.1102893117331924e+01 -1.3809331993234241e+02 0 0 0
1121 45 2 0.0000000000000000e+00 -5.6424996953929146e+01 5.6662261052315110e+01 -1.4142154031485236e+02 0 0 0
2924 117 4 0.0000000000000000e+00 -4.4646065018805110e+01 6.0914906506572272e+01 -1.3744067821589468e+02 0 0 0
1032 42 1 0.0000000000000000e+00 -3.7686346690066642e+01 5.4328332239460345e+01 -1.4431610918130781e+02 0 0 0
2925 117 3 0.0000000000000000e+00 -3.4826527725278559e+01 6.2364482104291852e+01 -1.3716403139907231e+02 0 0 0
2898 116 4 0.0000000000000000e+00 -2.1596969578054964e+01 5.5094666508773159e+01 -1.4757920147120933e+02 0 0 0
3651 147 3 0.0000000000000000e+00 -2.4430904747470139e-01 6.3696514567912409e+01 -1.3567445482444739e+02 0 0 0
2691 108 4 0.0000000000000000e+00 -7.1534906870638135e+00 5.5543318119817101e+01 -1.3835010998053647e+02 0 0 0
864 35 2 0.0000000000000000e+00 -1.5046103581948878e+00 6.0526600236435350e+01 -1.4701504673464024e+02 0 0 0
4777 192 4 0.0000000000000000e+00 -4.8980814614956425e-01 -7.3969265383049773e+01 -1.2276796821513707e+02 0 0 0
272 11 2 0.0000000000000000e+00 -2.5436693549752370e+01 -6.8963004342374489e+01 -1.2276554485730726e+02 0 0 0
273 11 2 0.0000000000000000e+00 -1.8964379392528198e+01 -6.3738505316962247e+01 -1.2848458165821978e+02 0 0 0
274 11 2 0.0000000000000000e+00 -1.6827642744604077e+01 -5.4346381738546086e+01 -1.3188946516277116e+02 0 0 0
275 11 1 0.0000000000000000e+00 -9.9682839573644522e+00 -4.7361151981557853e+01 -1.3418429895010618e+02 0 0 0
4781 192 4 0.0000000000000000e+00 -3.4534989371425637e+00 -5.5879004919130672e+01 -1.2397247162617651e+02 0 0 0
4780 192 4 0.0000000000000000e+00 -4.6307692979305175e+00 -5.7995988662538501e+01 -1.3380149165672219e+02 0 0 0
1455 59 2 0.0000000000000000e+00 8.6624481348120097e-01 -4.8878898161658746e+01 -1.3298481319567767e+02 0 0 0
4457 179 3 0.0000000000000000e+00 -4.5314162112502601e+01 -3.4015990611780374e+01 -1.2632955408117715e+02 0 0 0
4458 179 4 0.0000000000000000e+00 -3.7283116191136131e+01 -3.3973590703439562e+01 -1.3255303210055035e+02 0 0 0
1831 74 2 0.0000000000000000e+00 -2.9676106868003732e+01 -3.3856197075058468e+01 -1.2375977356626973e+02 0 0 0
3063 123 3 0.0000000000000000e+00 -1.8129336338067294e+01 -4.4394106677172019e+01 -1.2681082335996355e+02 0 0 0
4455 179 4 0.0000000000000000e+00 -5.6675924236962295e+01 -1.8210548331006883e+01 -1.2296172723463600e+02 0 0 0
4456 179 4 0.0000000000000000e+00 -4.9275220087986803e+01 -2.5029814158839823e+01 -1.2509824696479842e+02 0 0 0
3410 137 4 0.0000000000000000e+00 -3.6079810576533930e+01 -1.8712943417760940e+01 -1.3464126772335737e+02 0 0 0
2247 90 2 0.0000000000000000e+00 -2.9736455517691617e+01 -2.2540724473360338e+01 -1.2578481412399907e+02 0 0 0
2246 90 2 0.0000000000000000e+00 -2.6760034030388759e+01 -2.6945634234468098e+01 -1.3412901154383425e+02 0 0 0
4785 192 4 0.0000000000000000e+00 -4.5197695308331713e+00 -2.6004507744058092e+01 -1.2644263387713629e+02 0 0 0
3411 137 4 0.0000000000000000e+00 -4.5582135252367330e+01 -1.7616129887952731e+01 -1.3039799408326559e+02 0 0 0
3412 137 4 0.0000000000000000e+00 -4.9455659357267649e+01 -8.3555330909553955e+00 -1.3263856409148227e+02 0 0 0
2248 90 2 0.0000000000000000e+00 -3.7406970050975445e+01 -1.6442426272130326e+01 -1.2377310563470208e+02 0 0 0
2998 120 4 0.0000000000000000e+00 -3.6853668601155761e+01 -7.2880067638170098e+00 -1.3150538172344289e+02 0 0 0
1058 43 2 0.0000000000000000e+00 -2.1543329937690448e+01 -1.5457497825661074e+01 -1.2163168782310034e+02 0 0 0
1059 43 2 0.0000000000000000e+00 -1.6896695537283104e+01 -8.8526046550083741e+00 -1.2812586260626094e+02 0 0 0
409 17 2 0.0000000000000000e+00 -7.1225635223008616e+00 -1.3028811909316831e+01 -1.3039976534814753e+02 0 0 0
410 17 2 0.0000000000000000e+00 -8.8430154021717868e+00 -6.2792119060125779e+00 -1.2224722756116083e+02 0 0 0
2015 81 2 0.0000000000000000e+00 -6.8404190962792114e+01 4.3828222931398777e+00 -1.2538695725219333e+02 0 0 0
2016 81 2 0.0000000000000000e+00 -5.8420223287282496e+01 6.8830428067391169e+00 -1.2423452439564481e+02 0 0 0
2018 81 2 0.0000000000000000e+00 -4.1044219644494618e+01 6.0712387839631194e+00 -1.2855240460914411e+02 0 0 0
2997 120 4 0.0000000000000000e+00 -3.8711679258043560e+01 -2.8547723604280750e+00 -1.2293927358721344e+02 0 0 0
3185 128 4 0.0000000000000000e+00 -2.7602529057171488e+01 4.3704963610479242e+00 -1.3366522473344369e+02 0 0 0
3184 128 4 0.0000000000000000e+00 -2.5769640688075942e+01 -4.9072300738570795e-01 -1.2465456909743482e+02 0 0 0
1060 43 2 0.0000000000000000e+00 -1.1026384597924851e+01 -1.9595406963307904e-01 -1.2945811190911348e+02 0 0 0
1061 43 2 0.0000000000000000e+00 -1.2292004365908091e+00 3.0031932940148178e+00 -1.3016738754394206e+02 0 0 0
2012 81 2 0.0000000000000000e+00 -9.2098642382591365e+01 1.8697950202540820e+01 -1.2538355819475731e+02 0 0 0
2013 81 1 0.0000000000000000e+00 -8.3422601289151288e+01 1.2858490886875671e+01 -1.2602202267956349e+02 0 0 0
2014 81 2 0.0000000000000000e+00 -7.4773474936153519e+01 1.0025165982390643e+01 -1.3121295686951373e+02 0 0 0
3415 137 4 0.0000000000000000e+00 -5.7159804503327507e+01 1.4299595698941562e+01 -1.3130966241871354e+02 0 0 0
2017 81 2 0.0000000000000000e+00 -4.9667572625227976e+01 1.0704227526972828e+01 -1.2643518895830987e+02 0 0 0
3416 137 4 0.0000000000000000e+00 -5.3778107573315744e+01 2.0873575265832674e+01 -1.2487076548096717e+02 0 0 0
2462 99 2 0.0000000000000000e+00 -4.1654864446522019e+01 1.7844875258540544e+01 -1.2787758512896322e+02 0 0 0
4485 180 4 0.0000000000000000e+00 -3.2705345546463064e+01 1.0059025094212986e+01 -1.2445408571629997e+02 0 0 0
4486 180 4 0.0000000000000000e+00 -3.1628453987087894e+01 1.4223683048273891e+01 -1.3320490212024075e+02 0 0 0
2463 99 1 0.0000000000000000e+00 -3.3176846272399651e+01 2.3223449257339823e+01 -1.2532799738956011e+02 0 0 0
660 27 2 0.0000000000000000e+00 -2.0627461349924566e+01 1.7355603825163652e+01 -1.3091112881891712e+02 0 0 0
661 27 2 0.0000000000000000e+00 -1.4990293690986466e+01 1.7037454983292530e+01 -1.2262856799644197e+02 0 0 0
1064 43 2 0.0000000000000000e+00 -3.6372836800656017e+00 1.9753352163484283e+01 -1.2127250163842687e+02 0 0 0
2010 81 2 0.0000000000000000e+00 -9.8114403228578809e+01 3.4338475931144949e+01 -1.3278014289528218e+02 0 0 0
2011 81 2 0.0000000000000000e+00 -9.8736836607555162e+01 2.4283418036651121e+01 -1.3084355817164055e+02 0 0 0
2885 116 4 0.0000000000000000e+00 -8.6447826987104079e+01 3.6437074375356914e+01 -1.2339575794258350e+02 0 0 0
2231 90 2 0.0000000000000000e+00 -8.2253265606351562e+01 2.6929085455365637e+01 -1.3382920600145019e+02 0 0 0
2230 90 2 0.0000000000000000e+00 -8.0747249192355781e+01 2.8189084967336857e+01 -1.2389840922062125e+02 0 0 0
2887 116 4 0.0000000000000000e+00 -6.9884866907426982e+01 3.5960447759545083e+01 -1.3327161491168062e+02 0 0 0
2890 116 4 0.0000000000000000e+00 -5.3708913934350804e+01 2.7696431977761765e+01 -1.3348050945893661e+02 0 0 0
3419 137 3 0.0000000000000000e+00 -4.1847464986738430e+01 2.9060569599209575e+01 -1.2617778646466245e+02 0 0 0
3420 137 4 0.0000000000000000e+00 -3.5019113972054782e+01 2.7763314933569109e+01 -1.3385531087234082e+02 0 0 0
1125 45 1 0.0000000000000000e+00 -3.3009933916888549e+01 3.5828875091715489e+01 -1.2705599865814395e+02 0 0 0
1176 48 1 0.0000000000000000e+00 -1.7069324781236624e+01 2.7200565205859398e+01 -1.3319333575217277e+02 0 0 0
2464 99 2 0.0000000000000000e+00 -2.3761188497482628e+01 2.6146790691263888e+01 -1.2289887758589572e+02 0 0 0
2465 99 2 0.0000000000000000e+00 -1.5226042809409085e+01 3.2704303674090312e+01 -1.2336923209638420e+02 0 0 0
2688 108 3 0.0000000000000000e+00 -7.1503364296790943e+00 3.2455400759330203e+01 -1.3130336573140477e+02 0 0 0
2009 81 2 0.0000000000000000e+00 -9.4201867502075729e+01 4.4017293171107823e+01 -1.3229932221106361e+02 0 0 0