LAMMPS data file via write_data, version 5 Jun 2019, timestep = 370000000

5000 atoms
4 atom types
5297 bonds
3 bond types
4600 angles
2 angle types

-2.5000000000000000e+02 2.5000000000000000e+02 xlo xhi
-2.5000000000000000e+02 2.5000000000000000e+02 ylo yhi
-2.5000000000000000e+02 2.5000000000000000e+02 zlo zhi

Masses

1 1000
2 1000
3 1000
4 1000

Pair Coeffs # lj/cut

1 0.3 10
2 0.3 10
3 0.3 10
4 0.3 10

Bond Coeffs # harmonic

1 3 10
2 3 10
3 3 11.22

Angle Coeffs # cosine

1 2
2 2

Atoms # full

2025 81 1 0.0000000000000000e+00 -5.9466157761632964e+01 1.1702815582262478e+01 -1.8112256235786185e+02 0 0 0
4492 180 4 0.0000000000000000e+00 -6.4109647764045675e+01 4.1871730741683741e+01 -1.8549439848290379e+02 0 0 0
4401 177 3 0.0000000000000000e+00 -6.8036491008010188e+01 3.1890175602464122e+01 -1.8058689266770577e+02 0 0 0
4491 180 4 0.0000000000000000e+00 -5.8754373133980963e+01 3.3345166849541052e+01 -1.8450243111671259e+02 0 0 0
4493 180 4 0.0000000000000000e+00 -6.8318515752276113e+01 5.1389938050823723e+01 -1.8464886825614545e+02 0 0 0
2134 86 2 0.0000000000000000e+00 -5.2216059713574637e+01 5.3109581180263774e+01 -1.8183486083992557e+02 0 0 0
2133 86 2 0.0000000000000000e+00 -4.1503187909307286e+01 5.2370874529393660e+01 -1.8306229366542132e+02 0 0 0
2129 86 2 0.0000000000000000e+00 -1.0435322396638567e+01 4.7544896250120246e+01 -1.8108895559589999e+02 0 0 0
2128 86 2 0.0000000000000000e+00 -5.0995170434576229e+00 5.5532098724303445e+01 -1.8359293451214918e+02 0 0 0
2023 81 2 0.0000000000000000e+00 -6.4814065602859287e+01 -5.0872549069858009e+00 -1.7006042900467844e+02 0 0 0
2024 81 2 0.0000000000000000e+00 -6.1384833124321034e+01 1.9870143484269449e+00 -1.7702164816011265e+02 0 0 0
4473 179 4 0.0000000000000000e+00 -4.7181570780713173e+01 1.0691294776368309e+01 -1.6676257706844723e+02 0 0 0
4474 179 4 0.0000000000000000e+00 -5.7455549042156690e+01 1.2418031552897936e+01 -1.6896189977811855e+02 0 0 0
1395 56 2 0.0000000000000000e+00 -7.9503605221971355e+01 2.8709430064535347e+01 -1.6959580836712652e+02 0 0 0
4475 179 3 0.0000000000000000e+00 -6.5839659770062042e+01 1.6222016950185839e+01 -1.7271168742878879e+02 0 0 0
4489 180 4 0.0000000000000000e+00 -5.2440063384224594e+01 2.7476047167826618e+01 -1.6903223942615222e+02 0 0 0
4490 180 4 0.0000000000000000e+00 -5.3293619421320386e+01 2.7530751409331071e+01 -1.7841166820281782e+02 0 0 0
652 27 2 0.0000000000000000e+00 -4.0912949887210900e+01 2.6971511899419195e+01 -1.7170077366705561e+02 0 0 0
1394 56 1 0.0000000000000000e+00 -7.7259245370422050e+01 3.6398623972518415e+01 -1.7543234802222773e+02 0 0 0
4402 177 4 0.0000000000000000e+00 -6.3093328313540788e+01 3.3160747091610446e+01 -1.7243922493656370e+02 0 0 0
2456 99 2 0.0000000000000000e+00 -5.1313703518630717e+01 3.9010547950860371e+01 -1.7241221624077261e+02 0 0 0
653 27 2 0.0000000000000000e+00 -3.3450635534728356e+01 3.4747870576597933e+01 -1.7204001045350790e+02 0 0 0
654 27 2 0.0000000000000000e+00 -2.3726433628784100e+01 3.6155327426738687e+01 -1.6935399613518084e+02 0 0 0
4433 178 4 0.0000000000000000e+00 -8.8760658873931551e+00 3.4707768231257710e+01 -1.6699015016347664e+02 0 0 0
4432 178 3 0.0000000000000000e+00 -6.8509326405093844e+00 3.9145853798485767e+01 -1.7614485454553648e+02 0 0 0
1393 56 2 0.0000000000000000e+00 -7.9132144429716504e+01 4.6049890665406664e+01 -1.7796578250629568e+02 0 0 0
1392 56 2 0.0000000000000000e+00 -7.5525830756670288e+01 5.3218776068972772e+01 -1.7239791970155397e+02 0 0 0
2454 99 2 0.0000000000000000e+00 -6.6097479957234285e+01 4.6611824120404442e+01 -1.6961826169996385e+02 0 0 0
2455 99 2 0.0000000000000000e+00 -5.8631737810224884e+01 4.5320175385928138e+01 -1.7575158652025348e+02 0 0 0
2132 86 1 0.0000000000000000e+00 -3.1390426973003635e+01 5.2469738619539868e+01 -1.7986099014427020e+02 0 0 0
4126 166 3 0.0000000000000000e+00 -2.4530425865701190e+01 4.8688845127140482e+01 -1.7136655178684373e+02 0 0 0
2131 86 2 0.0000000000000000e+00 -2.3095528756294431e+01 5.7081366472806764e+01 -1.7604785314021476e+02 0 0 0
2130 86 2 0.0000000000000000e+00 -1.3974057530169063e+01 5.6366501961546604e+01 -1.7850357852392224e+02 0 0 0
875 35 1 0.0000000000000000e+00 -7.5312468553760823e+00 4.7509192650754194e+01 -1.6826223442197661e+02 0 0 0
3053 123 4 0.0000000000000000e+00 -9.6179428795399389e+01 -5.6705971919729450e+00 -1.5574230883271989e+02 0 0 0
1400 56 1 0.0000000000000000e+00 -8.8580487533678394e+01 9.3769226025185004e-01 -1.5312739618707943e+02 0 0 0
2021 81 2 0.0000000000000000e+00 -7.3010207110214907e+01 1.5875746447725887e+00 -1.5395832450787714e+02 0 0 0
2022 81 2 0.0000000000000000e+00 -7.0325597590164506e+01 -4.3923614654095218e+00 -1.6176525965644984e+02 0 0 0
3052 123 4 0.0000000000000000e+00 -9.8505888772686362e+01 3.5298278199676845e+00 -1.5876552448573702e+02 0 0 0
1399 56 2 0.0000000000000000e+00 -8.7185112678746151e+01 5.2121515957078977e+00 -1.6153961591206144e+02 0 0 0
3051 123 3 0.0000000000000000e+00 -9.3363046347891284e+01 1.0986646844022470e+01 -1.5478853201254373e+02 0 0 0
1398 56 2 0.0000000000000000e+00 -7.7934365853902165e+01 8.8241634486027074e+00 -1.6212093149822186e+02 0 0 0
1397 56 2 0.0000000000000000e+00 -6.9108928581533362e+01 1.4845978695596571e+01 -1.6311080114877046e+02 0 0 0
4472 179 4 0.0000000000000000e+00 -4.0632820210496540e+01 4.4053540877507489e+00 -1.6249396933956567e+02 0 0 0
4471 179 4 0.0000000000000000e+00 -4.0733153092992502e+01 8.7644030316544725e+00 -1.5344513275783885e+02 0 0 0
1396 56 2 0.0000000000000000e+00 -7.3776782638299295e+01 2.3894605141413020e+01 -1.6385801154673226e+02 0 0 0
4488 180 3 0.0000000000000000e+00 -5.9141516140568989e+01 2.2061600145629825e+01 -1.6441749947287357e+02 0 0 0
4487 180 4 0.0000000000000000e+00 -6.5705574847010951e+01 2.1545569743038083e+01 -1.5641974317574309e+02 0 0 0
651 27 1 0.0000000000000000e+00 -4.4322269073184728e+01 2.0736334576686545e+01 -1.6485843415433007e+02 0 0 0
3188 128 3 0.0000000000000000e+00 -3.5147854710463122e+01 2.5191167260204171e+01 -1.6062568091991901e+02 0 0 0
3187 128 4 0.0000000000000000e+00 -3.3915667521381394e+01 1.7251508146044749e+01 -1.5437607966447578e+02 0 0 0
2452 99 2 0.0000000000000000e+00 -6.6202677410123499e+01 3.7667643985427006e+01 -1.5620691886616089e+02 0 0 0
4403 177 4 0.0000000000000000e+00 -6.0903304626349396e+01 3.9358516162777569e+01 -1.6531216405009536e+02 0 0 0
2451 99 1 0.0000000000000000e+00 -5.8804406294565439e+01 3.0320514099092410e+01 -1.5711437801945959e+02 0 0 0
3424 137 4 0.0000000000000000e+00 -5.4360647864678469e+01 4.3436798116847690e+01 -1.5888777363214285e+02 0 0 0
2458 99 2 0.0000000000000000e+00 -4.5961146559198340e+01 3.5757985226341553e+01 -1.5479534384962739e+02 0 0 0
2457 99 1 0.0000000000000000e+00 -4.5034745437352790e+01 4.0018603929740870e+01 -1.6373764993280818e+02 0 0 0
3189 128 4 0.0000000000000000e+00 -3.0201621053839478e+01 3.4294533711233782e+01 -1.5777368798250794e+02 0 0 0
3190 128 4 0.0000000000000000e+00 -3.1458471527879123e+01 4.2920869926698543e+01 -1.5302622372239253e+02 0 0 0
655 27 2 0.0000000000000000e+00 -2.0417880327531648e+01 3.3784426443128865e+01 -1.5978391015792840e+02 0 0 0
4434 178 4 0.0000000000000000e+00 -1.2942823039949642e+01 4.0837439827202061e+01 -1.6033562009571963e+02 0 0 0
1391 56 2 0.0000000000000000e+00 -7.2620551483217994e+01 5.5645331518844721e+01 -1.6341158422142294e+02 0 0 0
1390 56 2 0.0000000000000000e+00 -7.8450200490109751e+01 5.7488705375832609e+01 -1.5501406299644449e+02 0 0 0
2453 99 2 0.0000000000000000e+00 -7.0292161027452110e+01 4.5944350998043376e+01 -1.6049446271814264e+02 0 0 0
4404 177 4 0.0000000000000000e+00 -6.1928639320777620e+01 4.9440114717899235e+01 -1.6119380821174238e+02 0 0 0
4405 177 4 0.0000000000000000e+00 -6.0128255516337518e+01 5.7283810657194472e+01 -1.5486059401415551e+02 0 0 0
3425 137 3 0.0000000000000000e+00 -4.9416480063377286e+01 5.0140231608796967e+01 -1.6506877186876889e+02 0 0 0
4498 180 4 0.0000000000000000e+00 -4.4047591205834856e+01 5.5691616864330889e+01 -1.5630970145911365e+02 0 0 0
4127 166 4 0.0000000000000000e+00 -1.8673719549032572e+01 5.0942394352341900e+01 -1.6383656058297262e+02 0 0 0
3191 128 4 0.0000000000000000e+00 -2.8425708435114178e+01 5.1944117073202058e+01 -1.5241087117120807e+02 0 0 0
4435 178 4 0.0000000000000000e+00 -1.2902269906692718e+01 4.9084656120387550e+01 -1.5371437298146159e+02 0 0 0
1986 80 2 0.0000000000000000e+00 -5.8203748700407445e+01 -6.1632978493377429e+01 -1.3942100253827948e+02 0 0 0
1985 80 2 0.0000000000000000e+00 -5.3069710475164918e+01 -5.3167713489135735e+01 -1.3865270719116373e+02 0 0 0
401 17 1 0.0000000000000000e+00 -6.2616646680161864e+01 -3.1888458425435466e+01 -1.4044635228384811e+02 0 0 0
3058 123 4 0.0000000000000000e+00 -5.5948565118770816e+01 -3.1084567899687290e+01 -1.4655736669190455e+02 0 0 0
3059 123 4 0.0000000000000000e+00 -4.8823415243427782e+01 -3.7089958969329402e+01 -1.4150451372331165e+02 0 0 0
3055 123 4 0.0000000000000000e+00 -8.3545331561423168e+01 -1.9971571034824365e+01 -1.4962210514460452e+02 0 0 0
3056 123 4 0.0000000000000000e+00 -7.3594830016545643e+01 -2.3577455624538448e+01 -1.4733884650946098e+02 0 0 0
3057 123 3 0.0000000000000000e+00 -6.3922344480972988e+01 -2.5348431961616299e+01 -1.4930762449424881e+02 0 0 0
402 17 2 0.0000000000000000e+00 -6.1244871138180990e+01 -2.2012614717223119e+01 -1.3880906444444042e+02 0 0 0
2240 90 2 0.0000000000000000e+00 -5.3746817899286725e+01 -2.0526903767927646e+01 -1.5197074299322634e+02 0 0 0
2241 90 2 0.0000000000000000e+00 -5.0967381153307663e+01 -2.2507752058418816e+01 -1.4219250006768229e+02 0 0 0
3054 123 4 0.0000000000000000e+00 -8.8494824133241039e+01 -1.1033483978340753e+01 -1.5052434401584856e+02 0 0 0
2235 90 2 0.0000000000000000e+00 -7.5308881588963274e+01 -7.2897684093088699e+00 -1.4360953686074336e+02 0 0 0
2234 90 2 0.0000000000000000e+00 -8.4639629820007386e+01 -2.9471921362744293e+00 -1.4344712845963585e+02 0 0 0
2236 90 2 0.0000000000000000e+00 -6.7552732755486574e+01 -6.3664523541192408e-01 -1.4375351292767593e+02 0 0 0
2239 90 2 0.0000000000000000e+00 -4.8231716129962585e+01 -1.1733219277805091e+01 -1.5107290959455844e+02 0 0 0
2238 90 1 0.0000000000000000e+00 -5.0102860324383499e+01 -1.6892377572778492e+00 -1.5084470999913268e+02 0 0 0
3000 120 3 0.0000000000000000e+00 -3.9375157103359598e+01 7.1985749496455376e-01 -1.4703206970589142e+02 0 0 0
4468 179 4 0.0000000000000000e+00 -2.5982239741660294e+01 -4.9337237812468588e+00 -1.4249572107944249e+02 0 0 0
4750 190 3 0.0000000000000000e+00 -1.0059318444170465e+02 1.3291528608688353e+01 -1.4294761222326980e+02 0 0 0
1976 80 1 0.0000000000000000e+00 -9.7613232362073219e+01 2.9194673698921858e+00 -1.4134686010806303e+02 0 0 0
2233 90 2 0.0000000000000000e+00 -8.7088292521258083e+01 6.7263267438739831e+00 -1.4093838760124530e+02 0 0 0
2020 81 2 0.0000000000000000e+00 -7.0288633265409942e+01 1.0783311253598502e+01 -1.5075652000228953e+02 0 0 0
2019 81 1 0.0000000000000000e+00 -6.6927304122249424e+01 1.2184021606496186e+01 -1.4169013070607986e+02 0 0 0
2237 90 2 0.0000000000000000e+00 -5.8371729962097241e+01 1.8833747367296381e+00 -1.4576737802220836e+02 0 0 0
3186 128 4 0.0000000000000000e+00 -3.3123652528882445e+01 1.4293381876924823e+01 -1.4471111939912760e+02 0 0 0
4470 179 4 0.0000000000000000e+00 -3.1035195567648785e+01 6.6032567550099390e+00 -1.5075603304593099e+02 0 0 0
4469 179 3 0.0000000000000000e+00 -2.2612335945132788e+01 2.4970041076297327e+00 -1.4818020537611002e+02 0 0 0
2150 86 1 0.0000000000000000e+00 -2.2510388420478989e+01 1.3285967817806156e+01 -1.4972096223007190e+02 0 0 0
2232 90 1 0.0000000000000000e+00 -9.0808673100971191e+01 1.5743981250331990e+01 -1.4313660169270770e+02 0 0 0
2901 117 3 0.0000000000000000e+00 -9.8523319585223476e+01 2.3634456248916404e+01 -1.4505839151249293e+02 0 0 0
4486 180 4 0.0000000000000000e+00 -5.8292733571947224e+01 2.4114208960349828e+01 -1.4992268606549811e+02 0 0 0
4485 180 4 0.0000000000000000e+00 -5.0925241700597773e+01 2.3885888512835912e+01 -1.4252527263662336e+02 0 0 0
2460 99 2 0.0000000000000000e+00 -3.7159531955252781e+01 2.7737952360960097e+01 -1.4007761259856954e+02 0 0 0
2459 99 2 0.0000000000000000e+00 -4.1707368533573479e+01 2.8644394570799388e+01 -1.4901189683971810e+02 0 0 0
2149 86 2 0.0000000000000000e+00 -1.3183742810359847e+01 1.6205024294434100e+01 -1.4701506320862643e+02 0 0 0
2148 86 2 0.0000000000000000e+00 -4.6061072171084616e+00 2.1762439491014270e+01 -1.4561659122201215e+02 0 0 0
1574 63 2 0.0000000000000000e+00 -7.1277179754872947e+01 4.2915189679489380e+01 -1.3935627472582442e+02 0 0 0
3423 137 4 0.0000000000000000e+00 -5.4895702863340986e+01 3.8258049000902716e+01 -1.4970459002222040e+02 0 0 0
3422 137 4 0.0000000000000000e+00 -5.3643662584985570e+01 3.9514519102744956e+01 -1.3937940410052499e+02 0 0 0
656 27 2 0.0000000000000000e+00 -2.1442107577763636e+01 3.8856155513817953e+01 -1.5116316117895710e+02 0 0 0
2891 116 4 0.0000000000000000e+00 -2.9096210944666996e+01 3.5054544285709660e+01 -1.3951757856427557e+02 0 0 0
657 27 1 0.0000000000000000e+00 -1.3857588771394514e+01 3.7258487663591893e+01 -1.4407016653906010e+02 0 0 0
1552 63 2 0.0000000000000000e+00 -9.2661275673739837e+01 5.7110672352787070e+01 -1.4347076297320169e+02 0 0 0
1389 56 2 0.0000000000000000e+00 -7.5553082657861424e+01 5.5053796458474558e+01 -1.4565522216032517e+02 0 0 0
1575 63 1 0.0000000000000000e+00 -6.1701954397198918e+01 4.6402331828706757e+01 -1.4100965185583902e+02 0 0 0
1179 48 2 0.0000000000000000e+00 -5.2673322234232309e+01 5.3356736401809975e+01 -1.4707742173293238e+02 0 0 0
2896 116 4 0.0000000000000000e+00 -3.3456590466538472e+01 4.9671088463569838e+01 -1.4374059307758947e+02 0 0 0
2889 116 4 0.0000000000000000e+00 -4.4907533872003576e+01 4.5126997622326883e+01 -1.4067931213723068e+02 0 0 0
1178 48 2 0.0000000000000000e+00 -4.4572385078980943e+01 5.5759448194657416e+01 -1.4182205606818439e+02 0 0 0
2895 116 4 0.0000000000000000e+00 -2.3522213381576790e+01 4.8514148653105565e+01 -1.4277473554112524e+02 0 0 0
4436 178 4 0.0000000000000000e+00 -1.0877315537154843e+01 5.5541501800840031e+01 -1.4592632751583071e+02 0 0 0
4198 168 4 0.0000000000000000e+00 -6.6690974967102804e+01 -6.8716891792548040e+01 -1.2705134737926286e+02 0 0 0
1988 80 1 0.0000000000000000e+00 -5.1327920742347764e+01 -7.5497137866392166e+01 -1.2929834202554179e+02 0 0 0
1987 80 2 0.0000000000000000e+00 -5.6815840557102625e+01 -7.1240672025035565e+01 -1.3687436032833739e+02 0 0 0
1984 80 2 0.0000000000000000e+00 -4.8735184068079967e+01 -4.6793344367368753e+01 -1.3230602531015379e+02 0 0 0
3061 123 4 0.0000000000000000e+00 -3.6600597342626095e+01 -4.0448890728653957e+01 -1.2628465080653837e+02 0 0 0
1981 80 2 0.0000000000000000e+00 -6.6310224552985048e+01 -2.7578056442683856e+01 -1.2722222784949912e+02 0 0 0
1982 80 1 0.0000000000000000e+00 -5.8305089215348055e+01 -3.3829729476413469e+01 -1.2681699414728891e+02 0 0 0
1983 80 2 0.0000000000000000e+00 -4.9839944239727060e+01 -3.9564708382676926e+01 -1.2495735448809248e+02 0 0 0
3060 123 4 0.0000000000000000e+00 -4.1698637374171462e+01 -3.9797504805914123e+01 -1.3525487834748429e+02 0 0 0
4465 179 4 0.0000000000000000e+00 -3.4097337570868923e+01 -2.6609063676366198e+01 -1.2600463907244244e+02 0 0 0
1980 80 2 0.0000000000000000e+00 -7.0774724085053307e+01 -1.8585962475884870e+01 -1.2711635984168332e+02 0 0 0
2242 90 2 0.0000000000000000e+00 -4.7241348948681974e+01 -2.6053654541912898e+01 -1.3358084722295229e+02 0 0 0
403 17 2 0.0000000000000000e+00 -5.4901370749756374e+01 -1.4803107089150171e+01 -1.3449219701090513e+02 0 0 0
404 17 2 0.0000000000000000e+00 -4.6680214534149755e+01 -1.5447919187101780e+01 -1.2907735551956807e+02 0 0 0
405 17 2 0.0000000000000000e+00 -3.6760107216946167e+01 -1.4869010179077375e+01 -1.2802492536380049e+02 0 0 0
4466 179 4 0.0000000000000000e+00 -3.1153122959656031e+01 -2.0547849584663609e+01 -1.3328492986267756e+02 0 0 0
1977 80 2 0.0000000000000000e+00 -9.3072005753779067e+01 -1.3727596705369260e+00 -1.3339224265946171e+02 0 0 0
1978 80 2 0.0000000000000000e+00 -8.6384019881238629e+01 -6.9852607292260709e+00 -1.2941053726242589e+02 0 0 0
1979 80 2 0.0000000000000000e+00 -7.7601969273294955e+01 -1.1102809378498055e+01 -1.2765858319383298e+02 0 0 0
3412 137 4 0.0000000000000000e+00 -7.7556299575285919e+01 -2.0220105482328932e+00 -1.3498796276793317e+02 0 0 0
3411 137 4 0.0000000000000000e+00 -6.8138086297441049e+01 -1.8694618666628264e+00 -1.3323805760967085e+02 0 0 0
3410 137 4 0.0000000000000000e+00 -5.8457530893248880e+01 7.8642236039660099e-02 -1.3393563379641446e+02 0 0 0
3409 137 4 0.0000000000000000e+00 -5.0997809345582560e+01 -4.1141661845691520e+00 -1.2916437000680565e+02 0 0 0
4467 179 4 0.0000000000000000e+00 -2.8033712644071155e+01 -1.1372505054874498e+01 -1.3598850394651274e+02 0 0 0
3210 129 4 0.0000000000000000e+00 -2.5672638035783649e+01 2.7636011465155241e-01 -1.3146721165065159e+02 0 0 0
3413 137 3 0.0000000000000000e+00 -7.5963403027122993e+01 7.9686643708461133e+00 -1.3583938587887738e+02 0 0 0
4478 180 4 0.0000000000000000e+00 -7.2320309174887456e+01 3.0597983028368057e+00 -1.2604187922005889e+02 0 0 0
4479 180 4 0.0000000000000000e+00 -6.4871234097169335e+01 8.1579156745354560e+00 -1.3141507953629929e+02 0 0 0
4480 180 4 0.0000000000000000e+00 -5.7207456212421242e+01 1.5191779091711899e+01 -1.3199984105633479e+02 0 0 0
2999 120 4 0.0000000000000000e+00 -3.3845520936515371e+01 3.6558367788065942e+00 -1.3807164310012459e+02 0 0 0
2998 120 4 0.0000000000000000e+00 -3.4912408250373360e+01 1.9597206500939157e+00 -1.2807814028363970e+02 0 0 0
4483 180 4 0.0000000000000000e+00 -4.3311928762861065e+01 1.1686379688073083e+01 -1.2949576487826221e+02 0 0 0
3185 128 4 0.0000000000000000e+00 -3.3540561759099418e+01 1.4320400702257855e+01 -1.3426846334712744e+02 0 0 0
3184 128 4 0.0000000000000000e+00 -2.5617572698215692e+01 1.2507130407843118e+01 -1.2781516379471371e+02 0 0 0
3211 129 4 0.0000000000000000e+00 -1.5884240222727160e+01 1.7541271528824611e+00 -1.3120449621591175e+02 0 0 0
3212 129 4 0.0000000000000000e+00 -8.6920687143052024e+00 7.0887047096383222e+00 -1.2806879265950360e+02 0 0 0
4749 190 4 0.0000000000000000e+00 -1.0760140577245772e+02 1.6433741655979780e+01 -1.3717291227739906e+02 0 0 0
2902 117 4 0.0000000000000000e+00 -1.0346994151768190e+02 2.6525664347502854e+01 -1.3709854871168153e+02 0 0 0
4748 190 4 0.0000000000000000e+00 -1.0728453893014762e+02 2.0405331035381600e+01 -1.2715687736382354e+02 0 0 0
2231 90 2 0.0000000000000000e+00 -9.1776140357705685e+01 1.9319846571618609e+01 -1.3390818282170054e+02 0 0 0
2230 90 2 0.0000000000000000e+00 -9.3352840527900995e+01 2.3921825516884383e+01 -1.2558749297433759e+02 0 0 0
3414 137 4 0.0000000000000000e+00 -8.0513164708402627e+01 1.5855210613964323e+01 -1.3197757031988792e+02 0 0 0
2017 81 2 0.0000000000000000e+00 -7.2637468858896270e+01 2.4798516222930672e+01 -1.2878482272939027e+02 0 0 0
2018 81 2 0.0000000000000000e+00 -7.1868810955327746e+01 1.9556710400797023e+01 -1.3680715243759093e+02 0 0 0
4481 180 4 0.0000000000000000e+00 -5.3527938086755128e+01 2.1891807082611763e+01 -1.2463498207107382e+02 0 0 0
4484 180 4 0.0000000000000000e+00 -4.5709428029761646e+01 1.8980446344579487e+01 -1.3515152940246867e+02 0 0 0
2461 99 2 0.0000000000000000e+00 -3.8368964583116835e+01 2.9124277074307766e+01 -1.3021796626614764e+02 0 0 0
2892 116 4 0.0000000000000000e+00 -2.6526343059282322e+01 2.7823070355556087e+01 -1.3277549613100885e+02 0 0 0
3213 129 3 0.0000000000000000e+00 -4.5244354658231973e+00 1.6155598866361490e+01 -1.3081570167292040e+02 0 0 0
2903 117 4 0.0000000000000000e+00 -1.1016417601099090e+02 3.2505124202385282e+01 -1.3299997508587347e+02 0 0 0
2904 117 4 0.0000000000000000e+00 -1.1220714418602918e+02 4.2221628179822531e+01 -1.2933709276455889e+02 0 0 0
1554 63 2 0.0000000000000000e+00 -1.0015899877740704e+02 4.0651946954086327e+01 -1.3413715544715339e+02 0 0 0
1555 63 2 0.0000000000000000e+00 -9.6844161748405924e+01 3.6437402569906951e+01 -1.2593964938114796e+02 0 0 0
1573 63 2 0.0000000000000000e+00 -7.5478213650305335e+01 3.5986949020980880e+01 -1.3342184370117909e+02 0 0 0
3421 137 4 0.0000000000000000e+00 -5.6554681735534160e+01 3.6260024484483708e+01 -1.2976622160886092e+02 0 0 0
2890 116 4 0.0000000000000000e+00 -3.5780896692495581e+01 4.2182062252009949e+01 -1.3741555177765497e+02 0 0 0
2893 116 4 0.0000000000000000e+00 -1.7999246134655426e+01 3.3145992110138309e+01 -1.3413776226930727e+02 0 0 0
2894 116 3 0.0000000000000000e+00 -1.7750581707894067e+01 4.3142569975408655e+01 -1.3566767563757031e+02 0 0 0
658 27 2 0.0000000000000000e+00 -8.8532764830641639e+00 3.5700003063556878e+01 -1.3612639733286980e+02 0 0 0
3655 147 4 0.0000000000000000e+00 -7.5253290533490285e+00 4.3248204763684441e+01 -1.2672439072810359e+02 0 0 0
659 27 2 0.0000000000000000e+00 -5.7261874676352011e+00 3.3355775240799069e+01 -1.2667987538141197e+02 0 0 0
2905 117 4 0.0000000000000000e+00 -1.0791608697479330e+02 5.0574985899466782e+01 -1.2632158253178244e+02 0 0 0
1553 63 2 0.0000000000000000e+00 -9.7121328619024922e+01 4.9877689137095686e+01 -1.3786280059682460e+02 0 0 0
1388 56 1 0.0000000000000000e+00 -7.3828623658990139e+01 5.6688309346916753e+01 -1.3578477164567508e+02 0 0 0
1572 63 2 0.0000000000000000e+00 -8.1046361236307746e+01 4.4880876832274659e+01 -1.3338865683942905e+02 0 0 0
1571 63 2 0.0000000000000000e+00 -8.3765167086317447e+01 5.4554514710451613e+01 -1.3148334361889491e+02 0 0 0
2886 116 4 0.0000000000000000e+00 -6.7895136449790826e+01 5.4747418857112059e+01 -1.2557993076293474e+02 0 0 0
2887 116 4 0.0000000000000000e+00 -6.1162964229409461e+01 5.6060399127817703e+01 -1.3320424892420422e+02 0 0 0
2888 116 3 0.0000000000000000e+00 -5.2819606054984995e+01 5.0570559706466376e+01 -1.3634161694814981e+02 0 0 0
1122 45 2 0.0000000000000000e+00 -5.0809244655938123e+01 5.5422350196502016e+01 -1.2503809755111511e+02 0 0 0
2687 108 4 0.0000000000000000e+00 -4.5003599711999932e+01 4.4654303489046789e+01 -1.2482350133916887e+02 0 0 0
1177 48 2 0.0000000000000000e+00 -3.6083607552139618e+01 5.5684990148406953e+01 -1.3700044442652597e+02 0 0 0
2688 108 3 0.0000000000000000e+00 -4.1553781355105905e+01 5.2363747998202207e+01 -1.2939405441650189e+02 0 0 0
1176 48 1 0.0000000000000000e+00 -3.0773594458950267e+01 4.9179370510127065e+01 -1.3075484346580217e+02 0 0 0
2679 108 4 0.0000000000000000e+00 -2.2463533451669612e+01 5.2939206033191724e+01 -1.2540108377638029e+02 0 0 0
2677 108 4 0.0000000000000000e+00 -7.4292154001885971e+00 5.2335919682928854e+01 -1.3384311718567602e+02 0 0 0
1989 80 2 0.0000000000000000e+00 -5.1402054173581497e+01 -8.2978988130443653e+01 -1.2306647886902348e+02 0 0 0
1848 74 2 0.0000000000000000e+00 -3.1993630181962125e+01 -8.6709543385164920e+01 -1.1944677349462269e+02 0 0 0
1847 74 2 0.0000000000000000e+00 -2.7395816452842485e+01 -9.4929867515367519e+01 -1.1570910424143344e+02 0 0 0
4199 168 4 0.0000000000000000e+00 -6.1400878266348428e+01 -6.9200852335534478e+01 -1.1880269751082673e+02 0 0 0
1990 80 2 0.0000000000000000e+00 -4.6461025993252875e+01 -8.1313538810034231e+01 -1.1498706435005263e+02 0 0 0
4200 168 3 0.0000000000000000e+00 -5.1395147650513238e+01 -7.0888001284594864e+01 -1.1914186168482868e+02 0 0 0
1849 74 2 0.0000000000000000e+00 -3.9336897817051401e+01 -8.0277562931869767e+01 -1.2230141727473253e+02 0 0 0
1850 74 1 0.0000000000000000e+00 -4.1704570513870792e+01 -7.1687986740186943e+01 -1.1789751115802211e+02 0 0 0
4196 168 4 0.0000000000000000e+00 -7.6931115561108442e+01 -6.7840756317188337e+01 -1.1344040514229039e+02 0 0 0
4197 168 4 0.0000000000000000e+00 -7.4465305648701133e+01 -6.4914159078074547e+01 -1.2327850715151874e+02 0 0 0
4776 192 3 0.0000000000000000e+00 -3.5954010906379558e+01 -6.2994234713932883e+01 -1.1546448179174600e+02 0 0 0
4777 192 4 0.0000000000000000e+00 -2.7577974845979838e+01 -6.8182790292285375e+01 -1.1631014191141391e+02 0 0 0
4778 192 4 0.0000000000000000e+00 -2.2002803914804009e+01 -6.1227053106402799e+01 -1.1107999148232643e+02 0 0 0
3073 123 4 0.0000000000000000e+00 -7.6042770898691799e+01 -4.2027575326476196e+01 -1.1521303120536909e+02 0 0 0
3074 123 4 0.0000000000000000e+00 -6.6986022537138723e+01 -4.2480063773198196e+01 -1.2022786111000335e+02 0 0 0
3064 123 4 0.0000000000000000e+00 -5.0782487456519171e+01 -5.4206357444383876e+01 -1.1476580675354255e+02 0 0 0
3075 123 3 0.0000000000000000e+00 -5.7439158589052951e+01 -4.1798417335601954e+01 -1.1865576448782879e+02 0 0 0
3063 123 3 0.0000000000000000e+00 -4.1621181128074866e+01 -5.3347550289526858e+01 -1.1623555789155334e+02 0 0 0
3062 123 4 0.0000000000000000e+00 -3.6082899751949732e+01 -4.5249289557695391e+01 -1.1718154403548944e+02 0 0 0
2065 83 2 0.0000000000000000e+00 -8.8222881114674522e+01 -2.7962303056157733e+01 -1.2095594278516747e+02 0 0 0
2066 83 2 0.0000000000000000e+00 -8.0215708695930431e+01 -3.2741751884517001e+01 -1.1659265753930784e+02 0 0 0
2067 83 2 0.0000000000000000e+00 -7.0215662075855718e+01 -3.2612516464032730e+01 -1.1434287405980437e+02 0 0 0
4463 179 3 0.0000000000000000e+00 -4.5348540910805973e+01 -3.1230315863940476e+01 -1.1424526939248108e+02 0 0 0
2243 90 2 0.0000000000000000e+00 -4.4788884323093363e+01 -2.8395952720407887e+01 -1.2444856547877440e+02 0 0 0
4464 179 4 0.0000000000000000e+00 -3.5807412964273972e+01 -3.2393208516047345e+01 -1.1771834197388142e+02 0 0 0
2064 83 2 0.0000000000000000e+00 -9.5573799910538881e+01 -2.0864779349877175e+01 -1.2335710085001598e+02 0 0 0
2170 87 2 0.0000000000000000e+00 -7.6490685751773881e+01 -2.0712452272430834e+01 -1.1058898295674004e+02 0 0 0
2068 83 2 0.0000000000000000e+00 -6.4232187915558612e+01 -2.4472774119999816e+01 -1.1461799610222920e+02 0 0 0
2069 83 1 0.0000000000000000e+00 -6.3842604671557517e+01 -1.4953388002821562e+01 -1.1221111948905107e+02 0 0 0
2245 90 2 0.0000000000000000e+00 -5.2740852199741113e+01 -1.6627413307385009e+01 -1.1353207647885195e+02 0 0 0
2244 90 1 0.0000000000000000e+00 -4.5187743269393039e+01 -2.0665839407294442e+01 -1.1780955654530119e+02 0 0 0
3406 137 4 0.0000000000000000e+00 -3.3655316277364207e+01 -2.1471817249803575e+01 -1.1282208711402602e+02 0 0 0
3407 137 3 0.0000000000000000e+00 -3.9376379655778727e+01 -1.3157753215142016e+01 -1.1508727955014862e+02 0 0 0
406 17 2 0.0000000000000000e+00 -2.7218182363471591e+01 -1.4834775784152745e+01 -1.2381646809695356e+02 0 0 0
407 17 1 0.0000000000000000e+00 -2.0414869974176156e+01 -1.7625085930298045e+01 -1.1724232670799576e+02 0 0 0
2063 83 1 0.0000000000000000e+00 -9.5847976999760348e+01 -1.1419448059653909e+01 -1.2316680202716961e+02 0 0 0
2062 83 2 0.0000000000000000e+00 -9.8376744529837453e+01 -2.4642494402327753e+00 -1.1925354327085688e+02 0 0 0
4476 180 3 0.0000000000000000e+00 -8.7314810639588686e+01 -6.9519463373980521e+00 -1.1685838116305570e+02 0 0 0
2171 87 2 0.0000000000000000e+00 -7.5824554566194394e+01 -1.1746363069841030e+01 -1.1582289617158732e+02 0 0 0
4477 180 4 0.0000000000000000e+00 -7.9062972052231288e+01 -2.3690516986277492e+00 -1.2137520604062996e+02 0 0 0
2172 87 2 0.0000000000000000e+00 -6.9278908351130838e+01 -8.0644857675653370e+00 -1.2231883288137116e+02 0 0 0
2173 87 2 0.0000000000000000e+00 -6.3016936144509792e+01 -5.8343443328421074e-01 -1.2237277983817930e+02 0 0 0
2246 90 2 0.0000000000000000e+00 -5.5043556415490052e+01 -6.9351046405577490e+00 -1.1534606852229798e+02 0 0 0
3408 137 4 0.0000000000000000e+00 -4.5633227782435689e+01 -8.4168659481202148e+00 -1.2128456805895335e+02 0 0 0
1451 59 1 0.0000000000000000e+00 -2.8985361296944127e+01 -1.0694107247998788e+01 -1.1140736962190628e+02 0 0 0
3209 129 4 0.0000000000000000e+00 -2.7520396745186769e+01 -1.5831328762147954e+00 -1.2160056769101551e+02 0 0 0
3208 129 4 0.0000000000000000e+00 -1.9465210731921466e+01 -7.4928440660386846e+00 -1.2302889079824186e+02 0 0 0
3207 129 3 0.0000000000000000e+00 -1.1293159656986889e+01 -1.1714411697784323e+01 -1.1882303548521239e+02 0 0 0
461 19 2 0.0000000000000000e+00 -4.3130514318239683e+00 -2.0667861879113225e+00 -1.1255998030646160e+02 0 0 0
2061 83 2 0.0000000000000000e+00 -9.9983928076509031e+01 5.2116217057825160e+00 -1.1295501470620530e+02 0 0 0
3161 127 4 0.0000000000000000e+00 -8.3199488625965358e+01 5.6050132818886116e+00 -1.1477196548553923e+02 0 0 0
3162 127 4 0.0000000000000000e+00 -7.2922276470621256e+01 4.2438016107440033e+00 -1.1521892232501401e+02 0 0 0
2174 87 2 0.0000000000000000e+00 -6.0399201112126207e+01 9.0103360991592982e+00 -1.1914018764293839e+02 0 0 0
1052 43 2 0.0000000000000000e+00 -4.7225144551448402e+01 1.8829385155218827e+00 -1.1345268984290122e+02 0 0 0
1051 43 1 0.0000000000000000e+00 -4.8854379133389322e+01 1.1984023325169931e+01 -1.1290770028286813e+02 0 0 0
2997 120 4 0.0000000000000000e+00 -3.5565845148579243e+01 5.8811930704731665e+00 -1.1840922727383619e+02 0 0 0
2996 120 4 0.0000000000000000e+00 -3.7063254025935599e+01 1.1672497580374223e+01 -1.1071727560139195e+02 0 0 0
3183 128 4 0.0000000000000000e+00 -2.3575051951215720e+01 1.3247488088516659e+01 -1.1811097825178102e+02 0 0 0
1056 43 2 0.0000000000000000e+00 -1.3868680073375812e+01 2.7598241674628454e+00 -1.1206519435286216e+02 0 0 0
4747 190 4 0.0000000000000000e+00 -1.0830686936766776e+02 1.9170953114993988e+01 -1.1732491524264211e+02 0 0 0
2229 90 2 0.0000000000000000e+00 -8.8996310362497240e+01 2.3293864593466317e+01 -1.1633173310575580e+02 0 0 0
3415 137 4 0.0000000000000000e+00 -8.1167750210172613e+01 2.1736101701264431e+01 -1.2423693683149409e+02 0 0 0
3416 137 4 0.0000000000000000e+00 -7.9502470037690472e+01 2.8446178445355123e+01 -1.1696103768339765e+02 0 0 0
2228 90 2 0.0000000000000000e+00 -8.0684370015823362e+01 1.9656844035708936e+01 -1.1239209124302370e+02 0 0 0
2016 81 2 0.0000000000000000e+00 -6.7442769473475053e+01 2.8645694290396818e+01 -1.2127030071545066e+02 0 0 0
2685 108 4 0.0000000000000000e+00 -5.0400997703038939e+01 2.7155673383250328e+01 -1.1637764737125639e+02 0 0 0
4482 180 3 0.0000000000000000e+00 -4.5025384290288535e+01 1.7895434866402148e+01 -1.2190695403028164e+02 0 0 0