LAMMPS data file via write_data, version 5 Jun 2019, timestep = 400000000

5000 atoms
4 atom types
5297 bonds
3 bond types
4600 angles
2 angle types

-2.5000000000000000e+02 2.5000000000000000e+02 xlo xhi
-2.5000000000000000e+02 2.5000000000000000e+02 ylo yhi
-2.5000000000000000e+02 2.5000000000000000e+02 zlo zhi

Masses

1 1000
2 1000
3 1000
4 1000

Pair Coeffs # lj/cut

1 0.3 10
2 0.3 10
3 0.3 10
4 0.3 10

Bond Coeffs # harmonic

1 3 10
2 3 10
3 3 11.22

Angle Coeffs # cosine

1 2
2 2

Atoms # full

3189 128 4 0.0000000000000000e+00 -2.1618869027548389e+01 2.9935789465666861e+01 -1.7904865489222186e+02 0 0 0
1553 63 2 0.0000000000000000e+00 -9.7278406524980610e+01 4.2711194802632839e+01 -1.7934087150721115e+02 0 0 0
1552 63 2 0.0000000000000000e+00 -8.9313619077625233e+01 4.7720573985888429e+01 -1.8286961502093175e+02 0 0 0
4491 180 4 0.0000000000000000e+00 -8.0974741125791496e+01 3.8802011198541834e+01 -1.7904984768306085e+02 0 0 0
4492 180 4 0.0000000000000000e+00 -7.9472198533441485e+01 4.7239497129297192e+01 -1.8293737454707247e+02 0 0 0
1551 63 1 0.0000000000000000e+00 -8.4346239659065077e+01 5.6617758747557005e+01 -1.8362562584083238e+02 0 0 0
1987 80 2 0.0000000000000000e+00 -7.0372729712514555e+01 -7.3994876381718726e+01 -1.6851272066919142e+02 0 0 0
1988 80 1 0.0000000000000000e+00 -6.6225578539252126e+01 -6.8466961373865246e+01 -1.7546490810546558e+02 0 0 0
1989 80 2 0.0000000000000000e+00 -6.0944572327153665e+01 -6.0996743038589258e+01 -1.7326010553340058e+02 0 0 0
4200 168 3 0.0000000000000000e+00 -6.2048274774949824e+01 -7.0442978090851412e+01 -1.6461299654098588e+02 0 0 0
1990 80 2 0.0000000000000000e+00 -5.7602039813392757e+01 -5.3490909776938352e+01 -1.6729129727488822e+02 0 0 0
1398 56 2 0.0000000000000000e+00 -9.6620141433751755e+01 1.0490590114273823e+01 -1.6655358298671879e+02 0 0 0
3188 128 3 0.0000000000000000e+00 -2.0374500006347013e+01 2.3527120329537858e+01 -1.7132432320681895e+02 0 0 0
4490 180 4 0.0000000000000000e+00 -8.7041254009631970e+01 3.3368119011127725e+01 -1.7289998989445283e+02 0 0 0
1396 56 2 0.0000000000000000e+00 -9.1575891018431975e+01 2.5903000874642089e+01 -1.6437329957046566e+02 0 0 0
1395 56 2 0.0000000000000000e+00 -9.2232387686219468e+01 3.6289935323830314e+01 -1.6535730230389186e+02 0 0 0
4489 180 4 0.0000000000000000e+00 -8.1174790697392226e+01 2.7753096963214354e+01 -1.6653555637701569e+02 0 0 0
4403 177 4 0.0000000000000000e+00 -6.0375573210531684e+01 3.7611420613050576e+01 -1.6855563617708859e+02 0 0 0
651 27 1 0.0000000000000000e+00 -2.8885393919957679e+01 2.9093065954310340e+01 -1.6729788901652287e+02 0 0 0
652 27 2 0.0000000000000000e+00 -2.0790987126496439e+01 3.4714030498314848e+01 -1.6733687341256297e+02 0 0 0
1394 56 1 0.0000000000000000e+00 -8.8375877781864006e+01 4.5175525526095321e+01 -1.6895249571087572e+02 0 0 0
4401 177 3 0.0000000000000000e+00 -7.7618421537817085e+01 4.4430010600747522e+01 -1.7153445313463826e+02 0 0 0
4402 177 4 0.0000000000000000e+00 -6.9042387631271524e+01 3.8282245745740909e+01 -1.7333396968817985e+02 0 0 0
4404 177 4 0.0000000000000000e+00 -5.7324151942283798e+01 4.5818391768231756e+01 -1.6418692849998868e+02 0 0 0
3425 137 3 0.0000000000000000e+00 -4.3586933417888481e+01 4.7886758338324867e+01 -1.7099508479194520e+02 0 0 0
3190 128 4 0.0000000000000000e+00 -2.3545164577722463e+01 3.9881356815827893e+01 -1.7660632911242141e+02 0 0 0
3191 128 4 0.0000000000000000e+00 -2.5442740426009447e+01 4.9738807312266708e+01 -1.7620648300839807e+02 0 0 0
1554 63 2 0.0000000000000000e+00 -9.7081403110530033e+01 5.2427685901686125e+01 -1.7551378150863022e+02 0 0 0
1555 63 2 0.0000000000000000e+00 -9.7070523501496183e+01 5.5872070915926962e+01 -1.6594741318191220e+02 0 0 0
1600 64 1 0.0000000000000000e+00 -7.7264553842589109e+01 6.2237437649427413e+01 -1.7652859123658101e+02 0 0 0
4493 180 4 0.0000000000000000e+00 -8.0215285170461613e+01 5.3335612506918238e+01 -1.7432437617444074e+02 0 0 0
4494 180 3 0.0000000000000000e+00 -8.3134815248573375e+01 6.0638673628083104e+01 -1.6746599909377807e+02 0 0 0
1599 64 2 0.0000000000000000e+00 -6.7681980208256277e+01 6.4000582557661332e+01 -1.7806025547106273e+02 0 0 0
2455 99 2 0.0000000000000000e+00 -6.7645284044876036e+01 5.4510634136627345e+01 -1.6618884060510257e+02 0 0 0
2456 99 2 0.0000000000000000e+00 -5.7607649770639924e+01 5.6510920185674742e+01 -1.6797454103151907e+02 0 0 0
3192 128 4 0.0000000000000000e+00 -2.9706737851646650e+01 5.5406622023327557e+01 -1.6871335515008110e+02 0 0 0
874 35 2 0.0000000000000000e+00 -2.4407188089011719e+01 6.4644666304193052e+01 -1.7066334325201126e+02 0 0 0
1986 80 2 0.0000000000000000e+00 -7.7274937452301160e+01 -7.3744389274576207e+01 -1.6178723009861767e+02 0 0 0
4199 168 4 0.0000000000000000e+00 -6.7601358953452717e+01 -7.2015653331797864e+01 -1.5667001833436888e+02 0 0 0
1985 80 2 0.0000000000000000e+00 -7.9201142700463180e+01 -7.0587744203365077e+01 -1.5276683733394498e+02 0 0 0
4198 168 4 0.0000000000000000e+00 -5.8418475904803664e+01 -6.9848673197273484e+01 -1.5260172275679219e+02 0 0 0
4197 168 4 0.0000000000000000e+00 -5.1966946268330069e+01 -6.3055567724344975e+01 -1.5708668426427479e+02 0 0 0
1992 80 2 0.0000000000000000e+00 -6.1939640591053170e+01 -4.6502344739797373e+01 -1.5088478563048957e+02 0 0 0
1991 80 2 0.0000000000000000e+00 -5.7741750044074777e+01 -4.6973280306606753e+01 -1.5944293786402503e+02 0 0 0
4196 168 4 0.0000000000000000e+00 -4.5504193375125460e+01 -5.5796124238077567e+01 -1.5667044961338357e+02 0 0 0
4195 168 4 0.0000000000000000e+00 -4.8825151294072370e+01 -4.9111194689023854e+01 -1.4987617493168909e+02 0 0 0
1400 56 1 0.0000000000000000e+00 -1.0229179324219922e+02 -3.5632271082612079e+00 -1.5585978882568830e+02 0 0 0
3056 123 4 0.0000000000000000e+00 -6.5338064325025314e+01 -6.7997558334118100e+00 -1.5088409455481013e+02 0 0 0
1399 56 2 0.0000000000000000e+00 -9.7918005144543301e+01 5.7299366813242969e-01 -1.6382824760886140e+02 0 0 0
3052 123 4 0.0000000000000000e+00 -9.4892869880020370e+01 3.5870400869668306e+00 -1.5432410809017134e+02 0 0 0
3053 123 4 0.0000000000000000e+00 -8.6663408936374694e+01 1.2263626717512353e+00 -1.6041845518647611e+02 0 0 0
3054 123 4 0.0000000000000000e+00 -7.7769952111477664e+01 -6.2731566182042542e-01 -1.6329201162649824e+02 0 0 0
3055 123 4 0.0000000000000000e+00 -7.4003352449967792e+01 -2.7511487849973637e+00 -1.5455008458278496e+02 0 0 0
4475 179 3 0.0000000000000000e+00 -6.8991909391893955e+01 7.0839560028830455e+00 -1.5599159617172407e+02 0 0 0
4474 179 4 0.0000000000000000e+00 -6.0179047027568252e+01 2.3457680631031024e+00 -1.5944931652364835e+02 0 0 0
4473 179 4 0.0000000000000000e+00 -5.0609714162962860e+01 3.1125381577871192e+00 -1.5679730329629848e+02 0 0 0
4472 179 4 0.0000000000000000e+00 -4.0528099500275950e+01 2.9088243139765244e+00 -1.5605286924967197e+02 0 0 0
4471 179 4 0.0000000000000000e+00 -3.1098983757022765e+01 1.8433977077524066e+00 -1.5413050758586306e+02 0 0 0
4470 179 4 0.0000000000000000e+00 -2.1485338964457263e+01 4.3014748223482453e+00 -1.5366271987114521e+02 0 0 0
2901 117 3 0.0000000000000000e+00 -1.0254878276159040e+02 1.9512976747567102e+01 -1.5641972027604891e+02 0 0 0
1397 56 2 0.0000000000000000e+00 -8.9438115823357776e+01 1.6119358907137787e+01 -1.6266442228309953e+02 0 0 0
2234 90 2 0.0000000000000000e+00 -8.7901362103619363e+01 1.2013854942579384e+01 -1.5202275240609526e+02 0 0 0
2025 81 1 0.0000000000000000e+00 -6.4385668448973249e+01 1.6971873060522977e+01 -1.5779859367534849e+02 0 0 0
3187 128 4 0.0000000000000000e+00 -2.1032150483887818e+01 2.4048205638013805e+01 -1.6137952107661184e+02 0 0 0
3501 141 3 0.0000000000000000e+00 -9.4110037155321933e+01 3.5546114475078568e+01 -1.5034739389386968e+02 0 0 0
4488 180 3 0.0000000000000000e+00 -7.7015037033207008e+01 2.6734707351055025e+01 -1.5701003993411373e+02 0 0 0
2451 99 1 0.0000000000000000e+00 -7.0873178385868883e+01 3.5941831146603135e+01 -1.6013587351622746e+02 0 0 0
2889 116 4 0.0000000000000000e+00 -6.4124331014618988e+01 2.9595501205124297e+01 -1.5100749636925715e+02 0 0 0
3422 137 4 0.0000000000000000e+00 -5.3956552663288839e+01 3.0130123484649740e+01 -1.5004087859371893e+02 0 0 0
3423 137 4 0.0000000000000000e+00 -4.7005329877803106e+01 3.3879180758439233e+01 -1.5642990217492491e+02 0 0 0
3185 128 4 0.0000000000000000e+00 -3.7319567100826760e+01 2.9916807600772042e+01 -1.5293331661376106e+02 0 0 0
3186 128 4 0.0000000000000000e+00 -2.7572296309039221e+01 2.8972078956386351e+01 -1.5555843078043833e+02 0 0 0
2452 99 2 0.0000000000000000e+00 -7.6017686482197220e+01 4.0435653900757025e+01 -1.5214966388677669e+02 0 0 0
2453 99 2 0.0000000000000000e+00 -8.1407091165601415e+01 4.6809354984572401e+01 -1.5707309144589996e+02 0 0 0
2890 116 4 0.0000000000000000e+00 -5.9236847471758033e+01 3.8345116507387743e+01 -1.5213716677497794e+02 0 0 0
3424 137 4 0.0000000000000000e+00 -4.4055284502418395e+01 4.1295753864303776e+01 -1.6352464558934076e+02 0 0 0
2458 99 2 0.0000000000000000e+00 -4.3216125252978237e+01 4.8084213345714382e+01 -1.5669977673344067e+02 0 0 0
2891 116 4 0.0000000000000000e+00 -5.0691885659062372e+01 4.2926567339591344e+01 -1.5150816863519424e+02 0 0 0
654 27 2 0.0000000000000000e+00 -2.1006411362158776e+01 3.9490116098728528e+01 -1.5406342663292142e+02 0 0 0
2680 108 4 0.0000000000000000e+00 -1.8479201696015167e+01 5.0446607845072208e+01 -1.5372716117794457e+02 0 0 0
4430 178 4 0.0000000000000000e+00 -2.1394156898018274e+01 4.9415557827426802e+01 -1.6359413642637435e+02 0 0 0
1393 56 2 0.0000000000000000e+00 -8.6265991378802909e+01 5.3159131293141257e+01 -1.6342259351095527e+02 0 0 0
1556 63 2 0.0000000000000000e+00 -9.5527296319405295e+01 5.2457617847389201e+01 -1.5695130077464671e+02 0 0 0
1392 56 2 0.0000000000000000e+00 -8.6878746229415711e+01 6.1118198152047036e+01 -1.5811706202384187e+02 0 0 0
2454 99 2 0.0000000000000000e+00 -7.6458656290549939e+01 5.5207030329038972e+01 -1.6071784570314065e+02 0 0 0
4407 177 3 0.0000000000000000e+00 -7.6855342878909738e+01 6.4734117066051439e+01 -1.5641035879511307e+02 0 0 0
4405 177 4 0.0000000000000000e+00 -6.0644764231905071e+01 5.2121759208241293e+01 -1.5641664176952494e+02 0 0 0
4406 177 4 0.0000000000000000e+00 -6.7961980773279336e+01 5.9725997894611957e+01 -1.5625199476107738e+02 0 0 0
3196 128 4 0.0000000000000000e+00 -6.0087580216320490e+01 6.4094727674719763e+01 -1.6266386081672698e+02 0 0 0
2457 99 1 0.0000000000000000e+00 -4.9349244684437323e+01 5.3909736561238020e+01 -1.6368599852985011e+02 0 0 0
3195 128 4 0.0000000000000000e+00 -5.2150117364631143e+01 6.4793125737585200e+01 -1.5663076770570231e+02 0 0 0
3193 128 4 0.0000000000000000e+00 -3.4220886765700776e+01 5.9510492737662361e+01 -1.6087755503696428e+02 0 0 0
4428 178 4 0.0000000000000000e+00 -3.5441076636214596e+01 5.4417741227262944e+01 -1.5027981710286713e+02 0 0 0
3194 128 3 0.0000000000000000e+00 -4.2188665237825809e+01 6.5146785875317150e+01 -1.5781295370161479e+02 0 0 0
4429 178 4 0.0000000000000000e+00 -2.8855800541725607e+01 5.1671134135166682e+01 -1.5733772837204930e+02 0 0 0
2135 86 2 0.0000000000000000e+00 -1.8202066003859464e+01 6.2080082348148586e+01 -1.5697039034182967e+02 0 0 0
2136 86 2 0.0000000000000000e+00 -2.6076474936132477e+01 6.5034824158177642e+01 -1.5159588677548106e+02 0 0 0
1984 80 2 0.0000000000000000e+00 -7.5194638700855734e+01 -6.4757632992681494e+01 -1.4478568229148550e+02 0 0 0
1983 80 2 0.0000000000000000e+00 -7.3266375723290196e+01 -5.7375952665632539e+01 -1.3864299091760353e+02 0 0 0
1993 80 2 0.0000000000000000e+00 -6.4622715335594378e+01 -4.5887534167236346e+01 -1.4107818924061152e+02 0 0 0
3060 123 4 0.0000000000000000e+00 -5.7752215276491242e+01 -3.7569222668236158e+01 -1.3749696624100613e+02 0 0 0
4194 168 3 0.0000000000000000e+00 -5.0959326124070728e+01 -4.2881010711188765e+01 -1.4184436155769581e+02 0 0 0
3059 123 4 0.0000000000000000e+00 -5.6907952202640068e+01 -2.8490996768977791e+01 -1.4126294001472274e+02 0 0 0
3058 123 4 0.0000000000000000e+00 -5.3213125452418552e+01 -1.8358921667934808e+01 -1.4122148180382305e+02 0 0 0
4463 179 3 0.0000000000000000e+00 -2.2281206856709503e+01 -2.5224902686898947e+01 -1.3601644454100659e+02 0 0 0
2018 81 2 0.0000000000000000e+00 -8.2745543160088374e+01 -1.0140812883381683e+01 -1.3896164767684559e+02 0 0 0
2019 81 1 0.0000000000000000e+00 -7.2622818486907263e+01 -9.7672459725978964e+00 -1.3754708762233886e+02 0 0 0
3057 123 3 0.0000000000000000e+00 -5.7264632963706902e+01 -1.0716437949383595e+01 -1.4607015397175411e+02 0 0 0
401 17 1 0.0000000000000000e+00 -5.8353995848013099e+01 -3.3766937399280246e+00 -1.3755740124862720e+02 0 0 0
2240 90 2 0.0000000000000000e+00 -3.6774787247075110e+01 -7.4813374139891495e+00 -1.4530310468673903e+02 0 0 0
2241 90 2 0.0000000000000000e+00 -3.8329843186057516e+01 -1.6823442798001327e+01 -1.4157837365575105e+02 0 0 0
2011 81 2 0.0000000000000000e+00 -1.1123057715907063e+02 9.5488384071500398e+00 -1.3917312414128850e+02 0 0 0
3051 123 3 0.0000000000000000e+00 -9.9390397083695319e+01 3.5852671129475505e-01 -1.4578218284501855e+02 0 0 0
2012 81 2 0.0000000000000000e+00 -1.0151406029051756e+02 1.0226954758160465e+01 -1.3674748836382909e+02 0 0 0
3416 137 4 0.0000000000000000e+00 -9.2459919876012250e+01 5.3333515359731978e+00 -1.3804603188230570e+02 0 0 0
2235 90 2 0.0000000000000000e+00 -8.0689571216204314e+01 8.6056781473756274e+00 -1.4546526178314713e+02 0 0 0
2236 90 2 0.0000000000000000e+00 -7.1822232356228596e+01 4.7246679573426329e+00 -1.4291612465857671e+02 0 0 0
2237 90 2 0.0000000000000000e+00 -6.1240418496806384e+01 5.9057909992696045e+00 -1.4262727087025840e+02 0 0 0
2238 90 1 0.0000000000000000e+00 -5.2009710852630192e+01 2.6217885605638362e+00 -1.4398483834736484e+02 0 0 0
2239 90 2 0.0000000000000000e+00 -4.2091583293359704e+01 7.7355949110318623e-01 -1.4336762474985323e+02 0 0 0
3209 129 4 0.0000000000000000e+00 -1.9919447795030948e+01 8.2946595725535079e+00 -1.3941437266494543e+02 0 0 0
2007 81 1 0.0000000000000000e+00 -1.3943966762339807e+02 1.1365677233961625e+01 -1.3849678078229601e+02 0 0 0
2008 81 2 0.0000000000000000e+00 -1.3581539186878220e+02 1.2834391386281199e+01 -1.4851706585294627e+02 0 0 0
4075 163 3 0.0000000000000000e+00 -1.3686748729539153e+02 2.2249696132776549e+01 -1.3725150370316152e+02 0 0 0
2009 81 2 0.0000000000000000e+00 -1.2683352321216110e+02 1.4311254195168917e+01 -1.4470148922801749e+02 0 0 0
2231 90 2 0.0000000000000000e+00 -1.1598703351038434e+02 1.9546241016517090e+01 -1.4192351142003494e+02 0 0 0
2010 81 2 0.0000000000000000e+00 -1.2107333378907806e+02 1.0890467043588103e+01 -1.3731172856681010e+02 0 0 0
2232 90 1 0.0000000000000000e+00 -1.0627907918433027e+02 1.7584020378437604e+01 -1.4567488785311917e+02 0 0 0
2885 116 4 0.0000000000000000e+00 -9.9912102451342307e+01 2.3241312155197061e+01 -1.3899670884889798e+02 0 0 0
2233 90 2 0.0000000000000000e+00 -9.7292663328069921e+01 1.4302920454761935e+01 -1.4817211612318957e+02 0 0 0
3417 137 4 0.0000000000000000e+00 -8.8893876928363611e+01 1.4774857755428920e+01 -1.4071066181148021e+02 0 0 0
3418 137 4 0.0000000000000000e+00 -8.4168062674546007e+01 2.2346681649944664e+01 -1.3660967614216645e+02 0 0 0
4487 180 4 0.0000000000000000e+00 -7.6215291470371952e+01 2.0904715515440838e+01 -1.4916597712992774e+02 0 0 0
4486 180 4 0.0000000000000000e+00 -7.6058612449441071e+01 1.7782516837460673e+01 -1.3955002120876378e+02 0 0 0
2024 81 2 0.0000000000000000e+00 -6.8030721653534826e+01 1.3807150347298785e+01 -1.4861766048425037e+02 0 0 0
2023 81 2 0.0000000000000000e+00 -6.5772980581974082e+01 1.6289597270292727e+01 -1.3960696930421383e+02 0 0 0
3182 128 3 0.0000000000000000e+00 -5.1727018961695620e+01 1.2998083632930928e+01 -1.3931808115230046e+02 0 0 0
3183 128 4 0.0000000000000000e+00 -4.7756180407357682e+01 2.0355357939797312e+01 -1.4418383187574392e+02 0 0 0
3210 129 4 0.0000000000000000e+00 -2.2588571828967336e+01 1.7641912081559212e+01 -1.3989296499359756e+02 0 0 0
2230 90 2 0.0000000000000000e+00 -1.1845729498234248e+02 2.8417505169196644e+01 -1.3875230934351981e+02 0 0 0
2903 117 4 0.0000000000000000e+00 -1.1017324440135043e+02 2.9393925555819127e+01 -1.4700936529306611e+02 0 0 0
2902 117 4 0.0000000000000000e+00 -1.0065410704313749e+02 2.5923012737866227e+01 -1.4861679976801062e+02 0 0 0
3502 141 4 0.0000000000000000e+00 -9.9567237717561568e+01 3.4976807720136023e+01 -1.4215331897634977e+02 0 0 0
2886 116 4 0.0000000000000000e+00 -9.1350017792406746e+01 2.8278059606161289e+01 -1.4065623961544335e+02 0 0 0
2888 116 3 0.0000000000000000e+00 -7.2578991205446442e+01 2.8927018172848367e+01 -1.4463853767001987e+02 0 0 0
2887 116 4 0.0000000000000000e+00 -8.2362163654348976e+01 2.8584877798040946e+01 -1.4540189304025006e+02 0 0 0
3421 137 4 0.0000000000000000e+00 -5.8872784473799967e+01 2.9311931345540017e+01 -1.4168505941974740e+02 0 0 0
3184 128 4 0.0000000000000000e+00 -4.3003408256838782e+01 2.8839044226067795e+01 -1.4530768267714319e+02 0 0 0
2460 99 2 0.0000000000000000e+00 -3.7635504367841833e+01 3.5962681193084890e+01 -1.4099458958302537e+02 0 0 0
2904 117 4 0.0000000000000000e+00 -1.1360183128117097e+02 3.8009922240586377e+01 -1.4263803704601526e+02 0 0 0
2905 117 4 0.0000000000000000e+00 -1.1481867997717524e+02 4.5696269958041221e+01 -1.3570426685419409e+02 0 0 0
3503 141 4 0.0000000000000000e+00 -1.0680948223942580e+02 3.8344678205910384e+01 -1.3614814117577822e+02 0 0 0
1557 63 1 0.0000000000000000e+00 -9.3442380514283570e+01 4.6524563641058386e+01 -1.4841001967530926e+02 0 0 0
1558 63 2 0.0000000000000000e+00 -8.9183776265206447e+01 4.3101590534042586e+01 -1.3955266828114176e+02 0 0 0
1573 63 2 0.0000000000000000e+00 -7.6330870754037178e+01 4.6850417350344735e+01 -1.4250718663979580e+02 0 0 0
1574 63 2 0.0000000000000000e+00 -7.5700681898507398e+01 3.8098768716997718e+01 -1.3836561244207797e+02 0 0 0
1575 63 1 0.0000000000000000e+00 -6.8422833831901073e+01 3.9265653135511748e+01 -1.4515082527973397e+02 0 0 0
1180 48 2 0.0000000000000000e+00 -6.4871465284596610e+01 4.8906629819305500e+01 -1.4181170498383432e+02 0 0 0
2892 116 4 0.0000000000000000e+00 -4.7111169594524966e+01 4.7065073394087122e+01 -1.4314231027070730e+02 0 0 0
2459 99 2 0.0000000000000000e+00 -3.9024128402378217e+01 4.2703136760046178e+01 -1.4867924257283869e+02 0 0 0
656 27 2 0.0000000000000000e+00 -3.1644555531861887e+01 4.7760206074507359e+01 -1.3958747581249813e+02 0 0 0
2893 116 4 0.0000000000000000e+00 -4.0843505489933357e+01 5.0433859060722234e+01 -1.3612052399500703e+02 0 0 0
655 27 2 0.0000000000000000e+00 -2.8167737317849298e+01 4.4148533243383504e+01 -1.4825824636896036e+02 0 0 0
669 27 1 0.0000000000000000e+00 -1.6108292315968335e+01 4.6290970344867404e+01 -1.4031697809570920e+02 0 0 0
1570 63 2 0.0000000000000000e+00 -1.0114514485986712e+02 6.0915110101396472e+01 -1.3670810917878075e+02 0 0 0
1572 63 2 0.0000000000000000e+00 -8.4373377588329788e+01 5.3132205883023950e+01 -1.4276939893695695e+02 0 0 0
1571 63 2 0.0000000000000000e+00 -9.3362636729963384e+01 5.4434230325473585e+01 -1.3831111326511399e+02 0 0 0
1182 48 1 0.0000000000000000e+00 -7.5270352659474668e+01 6.2551109076694509e+01 -1.4556380951265052e+02 0 0 0
1181 48 2 0.0000000000000000e+00 -6.9820768034024653e+01 5.4762946518582119e+01 -1.4793898537120805e+02 0 0 0
1032 42 1 0.0000000000000000e+00 -6.3118283600006137e+01 5.8755318146507513e+01 -1.3928009998977143e+02 0 0 0
4427 178 4 0.0000000000000000e+00 -4.5350264291372731e+01 5.4541129259209470e+01 -1.4962364418598241e+02 0 0 0
4426 178 3 0.0000000000000000e+00 -5.1920440100500187e+01 6.1098248287848783e+01 -1.4539094432337191e+02 0 0 0
2126 86 1 0.0000000000000000e+00 -4.1397053456394424e+01 6.0421309714047190e+01 -1.4206499541509496e+02 0 0 0
2127 86 2 0.0000000000000000e+00 -3.1216245081241418e+01 6.0616680735322738e+01 -1.4217622902372628e+02 0 0 0
2681 108 4 0.0000000000000000e+00 -2.2126945635801462e+01 5.3273620638971359e+01 -1.4467067201308581e+02 0 0 0
2128 86 2 0.0000000000000000e+00 -2.2388889916952198e+01 6.2356895460688904e+01 -1.3843561294593462e+02 0 0 0
1996 80 2 0.0000000000000000e+00 -4.5764160002506721e+01 -6.0220140123331461e+01 -1.2316661041682465e+02 0 0 0
3075 123 3 0.0000000000000000e+00 -8.4554830640372387e+01 -5.0841035412398391e+01 -1.3451129863968617e+02 0 0 0
3074 123 4 0.0000000000000000e+00 -8.1754989253375925e+01 -5.2842925899234515e+01 -1.2470623648145944e+02 0 0 0
1982 80 1 0.0000000000000000e+00 -7.3567068302868975e+01 -4.9450149292188094e+01 -1.3317705147391328e+02 0 0 0
1994 80 1 0.0000000000000000e+00 -5.7477076897682039e+01 -5.0275693653552494e+01 -1.3523014640534211e+02 0 0 0
1995 80 2 0.0000000000000000e+00 -5.3868664613664158e+01 -5.6777322684461460e+01 -1.2818559861572388e+02 0 0 0
1979 80 2 0.0000000000000000e+00 -9.7363400924966356e+01 -4.0731411057083328e+01 -1.2669871836511663e+02 0 0 0
1980 80 2 0.0000000000000000e+00 -8.7575453561212129e+01 -3.7383799301929997e+01 -1.2724277844647897e+02 0 0 0
1981 80 2 0.0000000000000000e+00 -7.9470127769877365e+01 -4.3304203223306665e+01 -1.2731483801532771e+02 0 0 0
3061 123 4 0.0000000000000000e+00 -6.2836833281175657e+01 -4.3173917681381596e+01 -1.3060847454468822e+02 0 0 0
4193 168 4 0.0000000000000000e+00 -4.8156509136195524e+01 -4.1227544876713210e+01 -1.3231763289503698e+02 0 0 0
4192 168 4 0.0000000000000000e+00 -5.3772536536170470e+01 -3.8423398293893598e+01 -1.2494171704818301e+02 0 0 0
4462 179 4 0.0000000000000000e+00 -1.8483127042929475e+01 -3.2870177737103013e+01 -1.3028474370261233e+02 0 0 0
4461 179 4 0.0000000000000000e+00 -1.6001387874535240e+01 -3.9100058040242828e+01 -1.2310684046820016e+02 0 0 0
2062 83 2 0.0000000000000000e+00 -1.0200035605939112e+02 -2.0548663968468574e+01 -1.3116503855927732e+02 0 0 0
2061 83 2 0.0000000000000000e+00 -1.0625674048391883e+02 -2.3472121947125025e+01 -1.2242981115795642e+02 0 0 0
2066 83 2 0.0000000000000000e+00 -8.8249539438073867e+01 -2.2630614135386185e+01 -1.2156101426890081e+02 0 0 0
2067 83 2 0.0000000000000000e+00 -7.8118727939548876e+01 -2.5748603667814169e+01 -1.2165498211437755e+02 0 0 0
2242 90 2 0.0000000000000000e+00 -3.8269726364256798e+01 -1.8973330842135198e+01 -1.3194996801813190e+02 0 0 0
2243 90 2 0.0000000000000000e+00 -3.0576000699409146e+01 -2.3283776110900202e+01 -1.2666671058118945e+02 0 0 0
4464 179 4 0.0000000000000000e+00 -2.9043950493118974e+01 -1.8141229632272310e+01 -1.3389466387920655e+02 0 0 0
2244 90 1 0.0000000000000000e+00 -2.1086006363996539e+01 -2.2175206707642293e+01 -1.2555627320585420e+02 0 0 0
4476 180 3 0.0000000000000000e+00 -1.1128985086387841e+02 -1.0626162898703633e+01 -1.2778369672134251e+02 0 0 0
2063 83 1 0.0000000000000000e+00 -1.0208700984205265e+02 -1.0780189650983910e+01 -1.3371824430189989e+02 0 0 0
2064 83 2 0.0000000000000000e+00 -9.8838579659648104e+01 -7.0529648406223373e+00 -1.2520811675302689e+02 0 0 0
3414 137 4 0.0000000000000000e+00 -8.6724817432690600e+01 -7.6335840882736798e+00 -1.3001219173990404e+02 0 0 0
2065 83 2 0.0000000000000000e+00 -9.4660853967466480e+01 -1.5974876433101846e+01 -1.2543940815166313e+02 0 0 0
3413 137 3 0.0000000000000000e+00 -7.9211286107380985e+01 -1.4472032244424470e+01 -1.2910233387025690e+02 0 0 0
3412 137 4 0.0000000000000000e+00 -6.9383251782308690e+01 -1.3560759335894799e+01 -1.2894820791551206e+02 0 0 0
3411 137 4 0.0000000000000000e+00 -5.9791074692880542e+01 -1.0076001278835411e+01 -1.2946779424839386e+02 0 0 0
3410 137 4 0.0000000000000000e+00 -5.2731223776302301e+01 -1.4146839588362475e+01 -1.2409759450713641e+02 0 0 0
4465 179 4 0.0000000000000000e+00 -2.8661417721337909e+01 -8.9814362092944506e+00 -1.2980614223871606e+02 0 0 0
3405 137 4 0.0000000000000000e+00 -1.6752135906775774e+01 -1.1536010191083033e+01 -1.2657949527326281e+02 0 0 0
2006 81 2 0.0000000000000000e+00 -1.3937010815720620e+02 1.0008995091535658e+01 -1.2891716663838653e+02 0 0 0
2882 116 3 0.0000000000000000e+00 -1.2047933116445782e+02 6.8448212550538683e+00 -1.2708254041076505e+02 0 0 0
3415 137 4 0.0000000000000000e+00 -9.4354099195372157e+01 -8.0840126256920308e-01 -1.3117161479975496e+02 0 0 0
2014 81 2 0.0000000000000000e+00 -8.9413130806220309e+01 7.3834055437606692e+00 -1.2267872384395943e+02 0 0 0
2017 81 2 0.0000000000000000e+00 -7.8973176905711924e+01 -2.7507029475524019e+00 -1.3318496094399330e+02 0 0 0
2016 81 2 0.0000000000000000e+00 -7.6777434456670548e+01 6.5843207086165707e+00 -1.3106937539007865e+02 0 0 0
2015 81 2 0.0000000000000000e+00 -8.0489673182203276e+01 3.0786648935397749e+00 -1.2257627962878355e+02 0 0 0
2020 81 2 0.0000000000000000e+00 -6.8673435808336194e+01 -2.1284064679310961e+00 -1.3184607525365814e+02 0 0 0
2021 81 2 0.0000000000000000e+00 -6.6282574592093738e+01 6.6864355587549946e+00 -1.2748971711523325e+02 0 0 0
402 17 2 0.0000000000000000e+00 -5.0587870225514628e+01 -2.5675006217619369e+00 -1.3061799275611907e+02 0 0 0
3180 128 4 0.0000000000000000e+00 -5.5354445661105245e+01 5.2437510378189858e+00 -1.2211917962731420e+02 0 0 0
3181 128 4 0.0000000000000000e+00 -5.3795274267703860e+01 5.9081880043364672e+00 -1.3184584442204536e+02 0 0 0
403 17 2 0.0000000000000000e+00 -4.0894154280277156e+01 -9.9905545481750935e-01 -1.2775028356006665e+02 0 0 0
404 17 2 0.0000000000000000e+00 -3.1310890854910131e+01 1.1381004172117359e+00 -1.2554624980207144e+02 0 0 0
4466 179 4 0.0000000000000000e+00 -2.1607629413308295e+01 -1.6135194431510571e+00 -1.3163657006274207e+02 0 0 0
405 17 2 0.0000000000000000e+00 -2.4363201782301516e+01 8.3423238586202633e+00 -1.2764249434822555e+02 0 0 0
2005 81 2 0.0000000000000000e+00 -1.3838818988346415e+02 1.7910980071331515e+01 -1.2230511607751913e+02 0 0 0
2883 116 4 0.0000000000000000e+00 -1.1499159438096366e+02 1.4709575683505713e+01 -1.2954857938926870e+02 0 0 0
2884 116 4 0.0000000000000000e+00 -1.0623793006499989e+02 1.7799217585307780e+01 -1.3319144680384014e+02 0 0 0
2227 90 2 0.0000000000000000e+00 -1.0351563127798121e+02 1.5405768772201434e+01 -1.2144703091996591e+02 0 0 0
2013 81 1 0.0000000000000000e+00 -9.5852360447100125e+01 1.2126221452397985e+01 -1.2850136417310728e+02 0 0 0
4485 180 4 0.0000000000000000e+00 -7.4221971657658685e+01 1.7153595017227371e+01 -1.2963519892948807e+02 0 0 0
4484 180 4 0.0000000000000000e+00 -7.2778606047260908e+01 1.1192449394342146e+01 -1.2218176078251530e+02 0 0 0
2022 81 2 0.0000000000000000e+00 -6.0544095256250664e+01 1.4976220915153112e+01 -1.3105284070917298e+02 0 0 0
1055 43 2 0.0000000000000000e+00 -4.5757673115261703e+01 1.5214209719182968e+01 -1.2433648855401093e+02 0 0 0
1056 43 2 0.0000000000000000e+00 -3.9594703846291239e+01 2.1621457721169300e+01 -1.2930233156327623e+02 0 0 0
1057 43 1 0.0000000000000000e+00 -3.0053426117706426e+01 2.2296766825337272e+01 -1.3102682782962592e+02 0 0 0
2004 81 2 0.0000000000000000e+00 -1.4165437147508686e+02 2.7887318820728506e+01 -1.2232091630457803e+02 0 0 0
4074 163 4 0.0000000000000000e+00 -1.3365208555614180e+02 2.4843494130956866e+01 -1.2836662023417350e+02 0 0 0
4073 163 4 0.0000000000000000e+00 -1.2477996683401882e+02 2.9188080541936376e+01 -1.2553719197075522e+02 0 0 0
2229 90 2 0.0000000000000000e+00 -1.1478259878772484e+02 2.8507983110075219e+01 -1.2915094592194009e+02 0 0 0
2228 90 2 0.0000000000000000e+00 -1.0722838603656682e+02 2.5047097159424666e+01 -1.2328372917780534e+02 0 0 0
1559 63 2 0.0000000000000000e+00 -8.8954492777860594e+01 3.5556610537092702e+01 -1.3328266291590216e+02 0 0 0
1560 63 2 0.0000000000000000e+00 -9.6773386124766361e+01 3.0268716832182978e+01 -1.2898611573882346e+02 0 0 0
1125 45 1 0.0000000000000000e+00 -8.3763162144553519e+01 2.4398147989162577e+01 -1.2593751539706385e+02 0 0 0
3419 137 3 0.0000000000000000e+00 -7.6368270662906255e+01 2.8101185714878298e+01 -1.3334302103617719e+02 0 0 0
1124 45 2 0.0000000000000000e+00 -7.4224999710815624e+01 2.4208340673718144e+01 -1.2250130631857741e+02 0 0 0
3420 137 4 0.0000000000000000e+00 -6.6886024426666935e+01 2.9874429998687290e+01 -1.3526822881493774e+02 0 0 0
1123 45 2 0.0000000000000000e+00 -6.5845626833867868e+01 3.0389827899573206e+01 -1.2205396283287398e+02 0 0 0
1122 45 2 0.0000000000000000e+00 -6.1330533845161270e+01 3.7503620651425813e+01 -1.2700237424515608e+02 0 0 0
4125 165 3 0.0000000000000000e+00 -2.8971617046908928e+01 3.2606422384300608e+01 -1.3502237199233181e+02 0 0 0
4124 165 4 0.0000000000000000e+00 -1.9049585555455874e+01 3.2361025623144677e+01 -1.3387711167514993e+02 0 0 0
1058 43 2 0.0000000000000000e+00 -2.2868541479295086e+01 2.7061090176088456e+01 -1.2650138031505438e+02 0 0 0
658 27 2 0.0000000000000000e+00 -2.5659844118206397e+01 3.6370077236898126e+01 -1.2463826897771399e+02 0 0 0
747 30 2 0.0000000000000000e+00 -1.3159406993860756e+02 4.7132962793294283e+01 -1.2789180441384377e+02 0 0 0
3505 141 4 0.0000000000000000e+00 -1.1410336933837311e+02 4.6544385447448143e+01 -1.2111114410163583e+02 0 0 0
3504 141 4 0.0000000000000000e+00 -1.0689625145996524e+02 4.1308743975848230e+01 -1.2704613164929962e+02 0 0 0
1568 63 2 0.0000000000000000e+00 -9.9060436424066225e+01 5.1465113827498719e+01 -1.2608097046508749e+02 0 0 0
1569 63 1 0.0000000000000000e+00 -1.0433772986620335e+02 5.1490994960052760e+01 -1.3466378994303375e+02 0 0 0
4995 200 4 0.0000000000000000e+00 -8.6028463260150033e+01 4.5150057436939889e+01 -1.2207351196464619e+02 0 0 0
1120 45 2 0.0000000000000000e+00 -7.6984250259184151e+01 4.8859844675845181e+01 -1.3100546624544165e+02 0 0 0
1179 48 2 0.0000000000000000e+00 -5.9069397593399223e+01 4.5412639518765104e+01 -1.3466444168303082e+02 0 0 0
1121 45 2 0.0000000000000000e+00 -7.0421021838191095e+01 4.1945316974482900e+01 -1.2778329942490797e+02 0 0 0
1178 48 2 0.0000000000000000e+00 -5.2067113278101210e+01 4.7010138443582463e+01 -1.2700177546586735e+02 0 0 0
2461 99 2 0.0000000000000000e+00 -3.8036304725570595e+01 4.1432487535423007e+01 -1.3223265695832751e+02 0 0 0
2462 99 2 0.0000000000000000e+00 -3.6839417344342642e+01 3.9353259734232388e+01 -1.2224184775788126e+02 0 0 0
657 27 1 0.0000000000000000e+00 -2.6811622502313956e+01 4.2469742154695560e+01 -1.3268426946263634e+02 0 0 0