LAMMPS data file via write_data, version 5 Jun 2019, timestep = 380000000

5000 atoms
4 atom types
5292 bonds
3 bond types
4600 angles
2 angle types

-2.5000000000000000e+02 2.5000000000000000e+02 xlo xhi
-2.5000000000000000e+02 2.5000000000000000e+02 ylo yhi
-2.5000000000000000e+02 2.5000000000000000e+02 zlo zhi

Masses

1 1000
2 1000
3 1000
4 1000

Pair Coeffs # lj/cut

1 0.3 10
2 0.3 10
3 0.3 10
4 0.3 10

Bond Coeffs # harmonic

1 3 10
2 3 10
3 3 11.22

Angle Coeffs # cosine

1 2
2 2

Atoms # full

4195 168 4 0.0000000000000000e+00 -7.2456789822686048e+01 -2.0926072883391729e+01 -1.6918763747129924e+02 0 0 0
4196 168 4 0.0000000000000000e+00 -7.4284662343378358e+01 -1.1279366207584193e+01 -1.6838379563396558e+02 0 0 0
3051 123 3 0.0000000000000000e+00 -5.9166794899856434e+01 -1.9615774630510451e+01 -1.7027343378667351e+02 0 0 0
3061 123 4 0.0000000000000000e+00 -1.8639555800946823e+01 -7.7291739281222327e+00 -1.6687191958310055e+02 0 0 0
3058 123 4 0.0000000000000000e+00 -5.7649161847449806e+00 -1.1482688875016112e+01 -1.7849407801831421e+02 0 0 0
3060 123 4 0.0000000000000000e+00 -9.4398793545347068e+00 -1.1740849055502672e+01 -1.6966034740483940e+02 0 0 0
3059 123 4 0.0000000000000000e+00 -1.8914249534671279e+00 -1.8130203713757332e+01 -1.7160757479047660e+02 0 0 0
3053 123 4 0.0000000000000000e+00 -4.8155037848838717e+01 -5.3449972983313172e+00 -1.6674503943079003e+02 0 0 0
3054 123 4 0.0000000000000000e+00 -3.9495053179539639e+01 -3.3244277762032404e-01 -1.6740660986669644e+02 0 0 0
3055 123 4 0.0000000000000000e+00 -3.0016635126126115e+01 2.3463419459273260e+00 -1.7006117392909957e+02 0 0 0
3056 123 4 0.0000000000000000e+00 -2.0216079828228647e+01 2.6098645643639382e+00 -1.7342595151860226e+02 0 0 0
3057 123 3 0.0000000000000000e+00 -1.2527888876783024e+01 -4.0130109465334884e+00 -1.7626133594964389e+02 0 0 0
401 17 1 0.0000000000000000e+00 -4.5882208908156858e+00 3.9638733831253052e+00 -1.7426331182050424e+02 0 0 0
1995 80 2 0.0000000000000000e+00 -7.9150270710444389e+01 -3.6610833377735752e+01 -1.6026194172583055e+02 0 0 0
1996 80 2 0.0000000000000000e+00 -7.2782440763729255e+01 -4.1651828320429665e+01 -1.5527043238703524e+02 0 0 0
1997 80 2 0.0000000000000000e+00 -6.3256826189816579e+01 -3.9839710340002611e+01 -1.5363419943198258e+02 0 0 0
1998 80 2 0.0000000000000000e+00 -5.5006621547497140e+01 -4.5761679994838282e+01 -1.5575477350367916e+02 0 0 0
4459 179 4 0.0000000000000000e+00 -4.8963570597102759e+00 -4.1693313811734306e+01 -1.6133485472325017e+02 0 0 0
4458 179 4 0.0000000000000000e+00 -1.1638998236612567e+01 -3.6104490573411361e+01 -1.5605149382352215e+02 0 0 0
4460 179 4 0.0000000000000000e+00 5.1798369761463041e+00 -3.8874730261824936e+01 -1.5960529778896358e+02 0 0 0
1994 80 1 0.0000000000000000e+00 -8.5941057816599681e+01 -2.9171988321076597e+01 -1.5879593254195194e+02 0 0 0
4194 168 3 0.0000000000000000e+00 -7.6133748980425665e+01 -2.3141839102008731e+01 -1.5955893497541982e+02 0 0 0
4193 168 4 0.0000000000000000e+00 -7.4181661859578881e+01 -3.0990654030222800e+01 -1.5344061333371317e+02 0 0 0
273 11 2 0.0000000000000000e+00 -2.4954423921053557e+01 -2.8238512213755651e+01 -1.5757569860754774e+02 0 0 0
4457 179 3 0.0000000000000000e+00 -1.4388219044405805e+01 -2.7453666112660702e+01 -1.5204687433722356e+02 0 0 0
1993 80 2 0.0000000000000000e+00 -8.9277192550466211e+01 -1.9716150995732505e+01 -1.6014708811375050e+02 0 0 0
1992 80 2 0.0000000000000000e+00 -9.0218880756418059e+01 -1.0267135661430137e+01 -1.5738692718405355e+02 0 0 0
3052 123 4 0.0000000000000000e+00 -5.4519410787219009e+01 -1.2506692808750874e+01 -1.6504829659345242e+02 0 0 0
274 11 2 0.0000000000000000e+00 -2.7096741124433940e+01 -1.8469000991187407e+01 -1.5851367074684936e+02 0 0 0
3062 123 4 0.0000000000000000e+00 -2.8765762963691540e+01 -8.9634010034155640e+00 -1.6564335834780624e+02 0 0 0
275 11 1 0.0000000000000000e+00 -3.0417663651224547e+01 -1.1505674893144013e+01 -1.5210975370475242e+02 0 0 0
3410 137 4 0.0000000000000000e+00 -3.5832437380819706e+00 -9.4929049854063230e+00 -1.5636014867995578e+02 0 0 0
3411 137 4 0.0000000000000000e+00 -1.2291843740152842e+01 -8.3243331908450298e+00 -1.5230059643703709e+02 0 0 0
2245 90 2 0.0000000000000000e+00 6.7347187574428142e+00 -1.9893423177355345e+01 -1.5205978721189578e+02 0 0 0
3409 137 4 0.0000000000000000e+00 6.0524688502008521e+00 -9.2234996372885885e+00 -1.5297592449088535e+02 0 0 0
1991 80 2 0.0000000000000000e+00 -9.6161206288858537e+01 -2.4240528352977306e+00 -1.5630246557009843e+02 0 0 0
4198 168 4 0.0000000000000000e+00 -8.0724034749506117e+01 4.3849243700811256e+00 -1.5969329090382610e+02 0 0 0
4197 168 4 0.0000000000000000e+00 -7.9249513979334921e+01 -4.2696427147145632e+00 -1.6400520203595920e+02 0 0 0
3063 123 3 0.0000000000000000e+00 -3.6698289508155028e+01 -6.4385330242035632e+00 -1.5949971326379080e+02 0 0 0
3412 137 4 0.0000000000000000e+00 -2.0376810411179861e+01 -2.9476076751927787e+00 -1.5559862543060052e+02 0 0 0
3413 137 3 0.0000000000000000e+00 -2.9037709377760535e+01 1.0462879991732545e+00 -1.5355816820228250e+02 0 0 0
1051 43 1 0.0000000000000000e+00 -1.0773238041443308e+01 4.5833172056406735e+00 -1.5347320999538269e+02 0 0 0
402 17 2 0.0000000000000000e+00 -9.2048882689552436e-01 -1.4922113214863504e+00 -1.6584998036721845e+02 0 0 0
403 17 2 0.0000000000000000e+00 4.3243708154914469e+00 -4.4997185373729226e-01 -1.5645814159857915e+02 0 0 0
4776 192 3 0.0000000000000000e+00 -2.1939316462079834e+01 -8.6143186319815186e+01 -1.3878577597740673e+02 0 0 0
4778 192 4 0.0000000000000000e+00 -2.2483557214094155e+01 -6.9358617167846276e+01 -1.4329039085639457e+02 0 0 0
4779 192 4 0.0000000000000000e+00 -1.8014878711223201e+01 -6.1811473127288991e+01 -1.4849445434157374e+02 0 0 0
1826 74 1 0.0000000000000000e+00 2.8823066752969275e+00 -6.1418047150233370e+01 -1.3882608508153547e+02 0 0 0
2000 80 1 0.0000000000000000e+00 -5.6833888795956575e+01 -5.8635784222554015e+01 -1.4241369355609228e+02 0 0 0
1999 80 2 0.0000000000000000e+00 -5.7822317901075955e+01 -5.3773983023261842e+01 -1.5135990530325645e+02 0 0 0
1845 74 2 0.0000000000000000e+00 -3.3137006038515842e+01 -4.9547038255783470e+01 -1.4828015237623549e+02 0 0 0
4151 167 3 0.0000000000000000e+00 -3.7809551815723175e+01 -5.6361927710272759e+01 -1.3984163113383570e+02 0 0 0
1846 74 2 0.0000000000000000e+00 -2.9219242298381474e+01 -5.8264966275725783e+01 -1.4517646921365903e+02 0 0 0
1830 74 2 0.0000000000000000e+00 -1.7164527814552372e+01 -5.1494928174461265e+01 -1.4065521373312018e+02 0 0 0
4780 192 4 0.0000000000000000e+00 -9.4831844132352305e+00 -5.5824995065610175e+01 -1.4811303978124823e+02 0 0 0
4781 192 4 0.0000000000000000e+00 -2.4752856058328478e+00 -4.8391063437304538e+01 -1.5008754841879207e+02 0 0 0
2389 96 2 0.0000000000000000e+00 -8.8969390451412735e+01 -3.7512919502499223e+01 -1.3976381131670317e+02 0 0 0
2387 96 2 0.0000000000000000e+00 -7.8984422455816642e+01 -3.9646040744024383e+01 -1.4345035789143790e+02 0 0 0
4191 168 4 0.0000000000000000e+00 -6.0168545019394067e+01 -3.5609699453097065e+01 -1.4186058290443168e+02 0 0 0
4192 168 4 0.0000000000000000e+00 -6.8963927511965395e+01 -3.6689504144328431e+01 -1.4592710560264788e+02 0 0 0
4189 168 4 0.0000000000000000e+00 -4.8920135385454664e+01 -4.5761525279455348e+01 -1.3949582418066325e+02 0 0 0
4190 168 4 0.0000000000000000e+00 -5.1911583156766433e+01 -4.0054797597885582e+01 -1.4682788929409290e+02 0 0 0
1844 74 1 0.0000000000000000e+00 -3.7037752134351649e+01 -4.5326125771635347e+01 -1.3991936290194894e+02 0 0 0
272 11 2 0.0000000000000000e+00 -2.4542992382994900e+01 -3.5853838601309739e+01 -1.5116751684924938e+02 0 0 0
271 11 2 0.0000000000000000e+00 -2.7557918374123414e+01 -4.2456325325966993e+01 -1.4428265081966870e+02 0 0 0
1831 74 2 0.0000000000000000e+00 -1.5130700794464792e+01 -4.2225288335614387e+01 -1.4360059211533130e+02 0 0 0
4782 192 3 0.0000000000000000e+00 2.0532775330260948e+00 -4.0085349826810614e+01 -1.4672407938443976e+02 0 0 0
3174 127 4 0.0000000000000000e+00 -9.5677963760880544e+01 -2.9051756948077333e+01 -1.3842497644041256e+02 0 0 0
3175 127 3 0.0000000000000000e+00 -8.8003744320915132e+01 -2.3093378658878812e+01 -1.4028699725656818e+02 0 0 0
2388 96 1 0.0000000000000000e+00 -8.4473975529811753e+01 -3.1851561631021557e+01 -1.4655433194007983e+02 0 0 0
1983 80 2 0.0000000000000000e+00 -7.8395773801903317e+01 -2.2145219170214784e+01 -1.3942495690412841e+02 0 0 0
3069 123 3 0.0000000000000000e+00 -5.1188181290406767e+01 -2.8804049182763695e+01 -1.4095467468439833e+02 0 0 0
1832 74 1 0.0000000000000000e+00 -1.8525452856764758e+01 -3.2968979388690478e+01 -1.4333874261734698e+02 0 0 0
2247 90 2 0.0000000000000000e+00 -8.0535352978793409e+00 -2.5919607207857425e+01 -1.4370692623411600e+02 0 0 0
2246 90 2 0.0000000000000000e+00 -3.2773722892348829e+00 -2.0800683889273973e+01 -1.5157991362548952e+02 0 0 0
4783 192 4 0.0000000000000000e+00 8.5324014405348603e+00 -3.2737191345606078e+01 -1.4336827783648607e+02 0 0 0
4784 192 4 0.0000000000000000e+00 7.4290384945927856e+00 -2.3713139706517453e+01 -1.3923129334775928e+02 0 0 0
1984 80 2 0.0000000000000000e+00 -7.5711721834193611e+01 -1.8205980295174403e+01 -1.4821083445598842e+02 0 0 0
1985 80 2 0.0000000000000000e+00 -8.2088010841177336e+01 -1.1384808793124352e+01 -1.4999937059540196e+02 0 0 0
3068 123 4 0.0000000000000000e+00 -4.8334609615728276e+01 -1.9481757626197595e+01 -1.3839226500043708e+02 0 0 0
4456 179 4 0.0000000000000000e+00 -1.8812690685980211e+01 -1.8875538519062129e+01 -1.4765115306487840e+02 0 0 0
4455 179 4 0.0000000000000000e+00 -2.2925767953272661e+01 -9.8557342603027571e+00 -1.4517007019181446e+02 0 0 0
2248 90 2 0.0000000000000000e+00 -1.1517760025459800e+01 -1.8050226740939095e+01 -1.3857614798498759e+02 0 0 0
4785 192 4 0.0000000000000000e+00 6.2109601740868592e-01 -1.6591252150051595e+01 -1.4211763468414998e+02 0 0 0
1990 80 2 0.0000000000000000e+00 -9.8878121742011828e+01 2.8362278807558705e+00 -1.4867236645434684e+02 0 0 0
1986 80 2 0.0000000000000000e+00 -8.5857376087023695e+01 -2.3279388835055990e+00 -1.4857255253176459e+02 0 0 0
3065 123 4 0.0000000000000000e+00 -4.6592250079169183e+01 -2.2927274801944026e+00 -1.4268184063618708e+02 0 0 0
3064 123 4 0.0000000000000000e+00 -4.1641995844441013e+01 -3.5033475416008524e+00 -1.5173796043486868e+02 0 0 0
3414 137 4 0.0000000000000000e+00 -3.4462167788720912e+01 6.5490336737178536e+00 -1.4730088105114658e+02 0 0 0
4454 179 4 0.0000000000000000e+00 -3.1269509184355623e+01 -3.5838764762848880e+00 -1.4434042705896519e+02 0 0 0
2018 81 2 0.0000000000000000e+00 -2.2350673658166947e+01 4.3639570817123223e+00 -1.4177935940880619e+02 0 0 0
3179 128 4 0.0000000000000000e+00 -7.6194764722866095e+00 6.8214378223041372e+00 -1.3877075308569587e+02 0 0 0
4786 192 4 0.0000000000000000e+00 -1.2543978067882529e+00 -6.6303220851599196e+00 -1.4193102341239370e+02 0 0 0
1059 43 2 0.0000000000000000e+00 5.6103068687599018e+00 2.3178870403903646e+00 -1.3866251968055030e+02 0 0 0
4949 198 4 0.0000000000000000e+00 -1.8072459473697972e+01 -1.3580832196708505e+02 -1.2643727633358351e+02 0 0 0
4950 198 3 0.0000000000000000e+00 -7.8461579024329362e+00 -1.3534156968778765e+02 -1.2470184836111284e+02 0 0 0
261 11 2 0.0000000000000000e+00 -2.4107233817037283e+01 -1.1281062473330475e+02 -1.2466442217073028e+02 0 0 0
4777 192 4 0.0000000000000000e+00 -2.2080760747430613e+01 -7.6578005275454814e+01 -1.3670576928256088e+02 0 0 0
1849 74 2 0.0000000000000000e+00 -2.0404695142695907e+01 -7.6189671002305474e+01 -1.2417551425674898e+02 0 0 0
1850 74 1 0.0000000000000000e+00 -1.5392832926991524e+01 -8.2941878616897228e+01 -1.3031641532051381e+02 0 0 0
4153 167 4 0.0000000000000000e+00 -4.5900595395648750e+01 -6.8136650329139286e+01 -1.2548283683971289e+02 0 0 0
4152 167 4 0.0000000000000000e+00 -4.0699938599843179e+01 -6.2677053228492113e+01 -1.3193964178915704e+02 0 0 0
1847 74 2 0.0000000000000000e+00 -2.9382002262988760e+01 -6.4453006555836254e+01 -1.3698303956216435e+02 0 0 0
1848 74 2 0.0000000000000000e+00 -2.7879391271534583e+01 -7.0852339103060032e+01 -1.2955422389690514e+02 0 0 0
1829 74 2 0.0000000000000000e+00 -1.6160342720783003e+01 -6.0868848019046617e+01 -1.3655757524479705e+02 0 0 0
1827 74 2 0.0000000000000000e+00 -2.8999378294704412e+00 -6.7513320822346358e+01 -1.3337753098899233e+02 0 0 0
587 24 2 0.0000000000000000e+00 -8.7048303209922651e+01 -5.5026829401530790e+01 -1.2391104563340491e+02 0 0 0
4188 168 3 0.0000000000000000e+00 -4.9553962580124143e+01 -5.5173240781764036e+01 -1.3470580260215718e+02 0 0 0
4187 168 4 0.0000000000000000e+00 -5.5064100957279756e+01 -6.0111412108580957e+01 -1.2746724989238999e+02 0 0 0
2384 96 2 0.0000000000000000e+00 -5.7662758536143791e+01 -4.7474337093816381e+01 -1.2430265815727466e+02 0 0 0
269 11 1 0.0000000000000000e+00 -3.3622483092205641e+01 -4.9184442032192827e+01 -1.2845628028101561e+02 0 0 0
270 11 2 0.0000000000000000e+00 -2.7526794790789609e+01 -4.9312153494335028e+01 -1.3663620546657586e+02 0 0 0
1828 74 2 0.0000000000000000e+00 -8.8679421361335766e+00 -5.9917349684913503e+01 -1.3012695705453274e+02 0 0 0
3267 131 4 0.0000000000000000e+00 3.9488328175788410e+00 -4.8615826739889229e+01 -1.3777021604505691e+02 0 0 0
3268 131 4 0.0000000000000000e+00 8.4352864102311997e+00 -5.5716956023383631e+01 -1.3167665020779950e+02 0 0 0
3172 127 4 0.0000000000000000e+00 -1.0009200356540748e+02 -4.3754345951924563e+01 -1.2859337646547965e+02 0 0 0
3173 127 4 0.0000000000000000e+00 -1.0142276815424411e+02 -3.5141889905027760e+01 -1.3278701438494673e+02 0 0 0
586 24 2 0.0000000000000000e+00 -8.7612818961477259e+01 -4.5944748568098461e+01 -1.2722939100117409e+02 0 0 0
2390 96 2 0.0000000000000000e+00 -8.9864346186268591e+01 -3.4059483590483289e+01 -1.3031068374542244e+02 0 0 0
585 24 2 0.0000000000000000e+00 -8.1314504169294807e+01 -3.9035710314542087e+01 -1.2588526240689251e+02 0 0 0
2386 96 2 0.0000000000000000e+00 -7.1891618899473130e+01 -4.3168540197065809e+01 -1.3699161155848753e+02 0 0 0
584 24 2 0.0000000000000000e+00 -7.6777994870576919e+01 -3.4622185482550186e+01 -1.3366720844847507e+02 0 0 0
2385 96 2 0.0000000000000000e+00 -6.3845011394190792e+01 -4.3483888778003639e+01 -1.3040658836590339e+02 0 0 0
1843 74 2 0.0000000000000000e+00 -4.1030228622562490e+01 -3.7052412125778751e+01 -1.3705843192038461e+02 0 0 0
3152 127 4 0.0000000000000000e+00 -3.9609347937902655e+01 -3.9828109451898591e+01 -1.2530447355570455e+02 0 0 0
3151 127 3 0.0000000000000000e+00 -3.0784929489272255e+01 -3.8723826047484074e+01 -1.3069894719816770e+02 0 0 0
1834 74 2 0.0000000000000000e+00 -2.1793189435204848e+01 -3.6525259959375006e+01 -1.2652027301130394e+02 0 0 0
1835 74 2 0.0000000000000000e+00 -2.2315120807728810e+01 -4.6152334484547580e+01 -1.2504591845359899e+02 0 0 0
1456 59 2 0.0000000000000000e+00 -8.7839528441381773e+00 -4.5679369143256267e+01 -1.3126781323284473e+02 0 0 0
1455 59 2 0.0000000000000000e+00 -1.2576989440606766e+01 -3.6360680245561916e+01 -1.3176452684217793e+02 0 0 0
1458 59 2 0.0000000000000000e+00 6.3282918122227434e+00 -3.9100115452688613e+01 -1.3243960030330800e+02 0 0 0
1457 59 1 0.0000000000000000e+00 -2.5761712626852926e+00 -3.9749924216148408e+01 -1.3620892820017082e+02 0 0 0
3075 123 3 0.0000000000000000e+00 -9.2860912226005524e+01 -2.1111654888283248e+01 -1.3093150052881427e+02 0 0 0
1982 80 1 0.0000000000000000e+00 -8.2153102847782435e+01 -2.4657566351935262e+01 -1.3065559595170774e+02 0 0 0
3070 123 4 0.0000000000000000e+00 -5.8345862372193544e+01 -2.3675555682549742e+01 -1.3644999522362579e+02 0 0 0
583 24 2 0.0000000000000000e+00 -6.6752691504467734e+01 -3.3331194690446821e+01 -1.3227553555775316e+02 0 0 0
582 24 1 0.0000000000000000e+00 -5.6899680788876900e+01 -3.3405728907186109e+01 -1.3247760711127810e+02 0 0 0
581 24 2 0.0000000000000000e+00 -5.0279509951069365e+01 -2.7790054437633284e+01 -1.2762930707465746e+02 0 0 0
3165 127 4 0.0000000000000000e+00 -5.6582353171967192e+01 -2.0389245588257864e+01 -1.2502307606854947e+02 0 0 0
1842 74 2 0.0000000000000000e+00 -3.9412757677207296e+01 -2.9866042887862132e+01 -1.3046252831012922e+02 0 0 0
1841 74 2 0.0000000000000000e+00 -3.1075325240634363e+01 -2.5417677499780776e+01 -1.2733946597682493e+02 0 0 0
1833 74 2 0.0000000000000000e+00 -2.1558972200636003e+01 -3.0140228384446164e+01 -1.3384010243705498e+02 0 0 0
1840 74 2 0.0000000000000000e+00 -2.1746184168063586e+01 -2.2821718681262027e+01 -1.2535198206022203e+02 0 0 0
1454 59 2 0.0000000000000000e+00 -9.3361920685875237e+00 -2.7197599338114767e+01 -1.3105776348018881e+02 0 0 0
3074 123 4 0.0000000000000000e+00 -8.5645140846996185e+01 -1.3996879214948086e+01 -1.3111408803314865e+02 0 0 0
3072 123 4 0.0000000000000000e+00 -7.1218990530187384e+01 -1.0252068703521003e+01 -1.2970113819147738e+02 0 0 0
3071 123 4 0.0000000000000000e+00 -6.3254291620595517e+01 -1.6314887870615099e+01 -1.3104572916985518e+02 0 0 0
3067 123 4 0.0000000000000000e+00 -4.8777668702418147e+01 -1.3518329060339136e+01 -1.3008624832915564e+02 0 0 0
3626 146 3 0.0000000000000000e+00 -2.8957080209203468e+01 -8.2737146334629212e+00 -1.2640560348325019e+02 0 0 0
2249 90 2 0.0000000000000000e+00 -1.9857468032318835e+01 -1.2906248922845720e+01 -1.3568032646854471e+02 0 0 0
3177 128 4 0.0000000000000000e+00 -9.2108159751488294e+00 -9.9358678196575454e+00 -1.3117589702275285e+02 0 0 0
1452 59 2 0.0000000000000000e+00 -2.4766406199130446e+00 -1.6810661406824480e+01 -1.2618704048190061e+02 0 0 0
1451 59 1 0.0000000000000000e+00 2.4817913131259264e+00 -1.1123340692569521e+01 -1.3319396577652296e+02 0 0 0
3073 123 4 0.0000000000000000e+00 -8.0198361016016889e+01 -6.2319710040799290e+00 -1.3313583668563558e+02 0 0 0
2011 81 2 0.0000000000000000e+00 -6.9685578854320028e+01 4.5372982325826505e-01 -1.2612975057317249e+02 0 0 0
3066 123 4 0.0000000000000000e+00 -5.1168801596485117e+01 -4.4577303323510771e+00 -1.3348037976818168e+02 0 0 0
4453 179 4 0.0000000000000000e+00 -3.6454757403005196e+01 -1.9005030567003960e+00 -1.3598327006952366e+02 0 0 0
4452 179 4 0.0000000000000000e+00 -3.9197738745146076e+01 6.1337290533847817e+00 -1.2989627712084445e+02 0 0 0
2250 90 1 0.0000000000000000e+00 -2.0968723133921475e+01 -3.5669299871425144e+00 -1.3240773720232579e+02 0 0 0
3178 128 4 0.0000000000000000e+00 -1.2239219651291984e+01 -1.5785020310193154e+00 -1.3625685753926817e+02 0 0 0
4787 192 4 0.0000000000000000e+00 -1.8944052373948681e+00 -1.7502145406528209e+00 -1.3352897146100892e+02 0 0 0
257 11 1 0.0000000000000000e+00 -8.0754037864068504e+00 -1.4397217132139872e+02 -1.1667709891400433e+02 0 0 0
4948 198 4 0.0000000000000000e+00 -2.4904047570978207e+01 -1.3874457470306081e+02 -1.1990789432613003e+02 0 0 0
4947 198 4 0.0000000000000000e+00 -2.8638226795312971e+01 -1.2984181327154013e+02 -1.1597278640100262e+02 0 0 0
259 11 2 0.0000000000000000e+00 -1.8055712366767697e+01 -1.2856689170976924e+02 -1.1519093971126456e+02 0 0 0
258 11 2 0.0000000000000000e+00 -1.6328117957493259e+01 -1.3788758921043345e+02 -1.1696313786331469e+02 0 0 0
4946 198 4 0.0000000000000000e+00 -3.2383234812229780e+01 -1.2023866085033504e+02 -1.1540171113073757e+02 0 0 0
260 11 2 0.0000000000000000e+00 -2.1402956418179116e+01 -1.1961354821963353e+02 -1.1772168982038056e+02 0 0 0
255 11 2 0.0000000000000000e+00 -9.8076654203427438e+00 -1.2805740961777582e+02 -1.1015302584676898e+02 0 0 0
4945 198 4 0.0000000000000000e+00 -3.8893796347883253e+01 -1.1261350348707218e+02 -1.1395780974586742e+02 0 0 0
262 11 2 0.0000000000000000e+00 -2.6480391600588494e+01 -1.0289139315621676e+02 -1.2274594785536904e+02 0 0 0
52 3 2 0.0000000000000000e+00 1.1624835269785676e+00 -1.0808385395186208e+02 -1.1137138699479875e+02 0 0 0
53 3 2 0.0000000000000000e+00 1.0589168016209753e+01 -1.0932733030511135e+02 -1.1380696207374478e+02 0 0 0
3079 124 4 0.0000000000000000e+00 -4.8696035138932864e+01 -8.8169759466208788e+01 -1.1445234368147707e+02 0 0 0
3081 124 4 0.0000000000000000e+00 -3.3533826589378556e+01 -9.9126284731519021e+01 -1.1509480876497197e+02 0 0 0
3080 124 4 0.0000000000000000e+00 -4.2051630052066521e+01 -9.5278371647393314e+01 -1.1241782171965980e+02 0 0 0
263 11 1 0.0000000000000000e+00 -2.5271698815587250e+01 -9.3953874962344656e+01 -1.1808645622744757e+02 0 0 0
2151 87 1 0.0000000000000000e+00 -1.2643331981922202e+01 -9.0544380686221189e+01 -1.2296436264202904e+02 0 0 0
3526 142 3 0.0000000000000000e+00 -1.5222742714476603e+00 -9.3075194249697503e+01 -1.2314001022651705e+02 0 0 0
51 3 1 0.0000000000000000e+00 2.8815837181193875e+00 -9.8189149752433707e+01 -1.0995594262271715e+02 0 0 0
3527 142 4 0.0000000000000000e+00 1.3492187872257750e+00 -8.8064074462516245e+01 -1.1523227201748242e+02 0 0 0
2400 96 1 0.0000000000000000e+00 -8.5183681342323752e+01 -7.5779508917825410e+01 -1.2045757431286277e+02 0 0 0
4157 167 3 0.0000000000000000e+00 -7.5755212232627457e+01 -8.0007690298068681e+01 -1.1504198492405351e+02 0 0 0
4155 167 4 0.0000000000000000e+00 -5.9105987604216253e+01 -7.6936288950927448e+01 -1.2106914588395388e+02 0 0 0
4154 167 4 0.0000000000000000e+00 -4.8862658113484557e+01 -7.4954348917403067e+01 -1.1955534269727140e+02 0 0 0
265 11 2 0.0000000000000000e+00 -2.8047480329172267e+01 -7.5463702507623040e+01 -1.1515334544422443e+02 0 0 0
264 11 2 0.0000000000000000e+00 -2.3433038328745642e+01 -8.4663958347519440e+01 -1.1708698901914025e+02 0 0 0
2152 87 2 0.0000000000000000e+00 -9.5354386247603333e+00 -8.1006864709806877e+01 -1.2255160807199273e+02 0 0 0
3275 131 3 0.0000000000000000e+00 -9.8801966877701233e+00 -7.5420667722886336e+01 -1.1503305519060564e+02 0 0 0
2399 96 2 0.0000000000000000e+00 -9.0062128342234999e+01 -7.3358750007899005e+01 -1.1220363780919142e+02 0 0 0
4156 167 4 0.0000000000000000e+00 -6.7504656434348533e+01 -7.3953751304293348e+01 -1.1734898293202012e+02 0 0 0
4185 168 4 0.0000000000000000e+00 -6.1841588690364269e+01 -6.1065545886951917e+01 -1.0989244695891442e+02 0 0 0
266 11 2 0.0000000000000000e+00 -3.6850878047123317e+01 -6.9730530086176444e+01 -1.1588008658861884e+02 0 0 0
1164 47 2 0.0000000000000000e+00 -2.1946682986103323e+01 -6.5475088164512755e+01 -1.1686758022926031e+02 0 0 0
3274 131 4 0.0000000000000000e+00 -5.7939271800149426e+00 -6.8138355540075082e+01 -1.1017370846477671e+02 0 0 0
2154 87 2 0.0000000000000000e+00 2.2777535113184200e-01 -6.4127051408206214e+01 -1.2370709468006018e+02 0 0 0
2153 87 2 0.0000000000000000e+00 -2.6792770231469469e+00 -7.3570796220709738e+01 -1.2158607991090126e+02 0 0 0
3170 127 4 0.0000000000000000e+00 -8.9883393306390786e+01 -5.0583788814362627e+01 -1.1334495174224762e+02 0 0 0
3171 127 4 0.0000000000000000e+00 -9.5970356947598361e+01 -4.8798251868698863e+01 -1.2141987346819570e+02 0 0 0
588 24 1 0.0000000000000000e+00 -8.0049420460620084e+01 -5.2348831421298577e+01 -1.1713982152286925e+02 0 0 0
589 24 2 0.0000000000000000e+00 -7.4612116382906294e+01 -5.9284835602084556e+01 -1.1211603376543468e+02 0 0 0
4186 168 4 0.0000000000000000e+00 -6.0885705157597954e+01 -5.8234141564218689e+01 -1.1934113855660819e+02 0 0 0
268 11 2 0.0000000000000000e+00 -4.0698760887039427e+01 -5.1026238436085677e+01 -1.2125976780137560e+02 0 0 0
267 11 2 0.0000000000000000e+00 -3.8927145832801756e+01 -6.0047641254181123e+01 -1.1713300484093430e+02 0 0 0
1166 47 2 0.0000000000000000e+00 -3.2183013304872283e+01 -5.4513828467899081e+01 -1.1163577327825938e+02 0 0 0
1165 47 2 0.0000000000000000e+00 -2.7585776055476039e+01 -5.7747075213344978e+01 -1.2054056386622592e+02 0 0 0
2723 109 4 0.0000000000000000e+00 -2.2480499232321762e+01 -4.8555097864102038e+01 -1.1134160265099909e+02 0 0 0
1836 74 2 0.0000000000000000e+00 -1.6727179087886288e+01 -5.4421983421326303e+01 -1.2327365204379942e+02 0 0 0
1837 74 2 0.0000000000000000e+00 -1.2102229153386936e+01 -4.8121420265827929e+01 -1.1633629841029668e+02 0 0 0
2155 87 2 0.0000000000000000e+00 2.4276229501635767e+00 -5.4101282987406549e+01 -1.2323149422399212e+02 0 0 0
3169 127 3 0.0000000000000000e+00 -8.5545508257958900e+01 -4.2727101347276218e+01 -1.1701673325081205e+02 0 0 0
3154 127 4 0.0000000000000000e+00 -5.8224962501636774e+01 -3.6304812375943364e+01 -1.2170793536344549e+02 0 0 0
3994 160 3 0.0000000000000000e+00 -5.9555669261269486e+01 -4.3842209304743072e+01 -1.1165486746998323e+02 0 0 0
3153 127 4 0.0000000000000000e+00 -4.8715633058445583e+01 -3.8685425671460706e+01 -1.2270048263172131e+02 0 0 0
2383 96 2 0.0000000000000000e+00 -5.0700993196131535e+01 -4.6156403453773905e+01 -1.1654334821816087e+02 0 0 0
2382 96 1 0.0000000000000000e+00 -5.0788613432752513e+01 -3.7568895924202799e+01 -1.1124430525497505e+02 0 0 0
2725 109 3 0.0000000000000000e+00 -3.6885556288270486e+01 -3.4929009499463987e+01 -1.1686869254110881e+02 0 0 0
2724 109 4 0.0000000000000000e+00 -3.0839927442952732e+01 -4.2601368300005767e+01 -1.1266683765052952e+02 0 0 0
1838 74 1 0.0000000000000000e+00 -1.0867692290849211e+01 -3.8657216593817175e+01 -1.1949189172410298e+02 0 0 0
2156 87 2 0.0000000000000000e+00 -3.5960946484945056e+00 -4.5287033237518585e+01 -1.2239364923297110e+02 0 0 0
2157 87 1 0.0000000000000000e+00 -1.4914749948107571e+00 -4.2237111653161534e+01 -1.1302033149609741e+02 0 0 0
455 19 2 0.0000000000000000e+00 9.7503190924521945e+00 -4.2713798362685495e+01 -1.1421918970859591e+02 0 0 0
2391 96 2 0.0000000000000000e+00 -9.2508311747562189e+01 -3.2999244079114582e+01 -1.2109055451961869e+02 0 0 0
1981 80 2 0.0000000000000000e+00 -8.5563145038881629e+01 -2.2897039218763414e+01 -1.2083042836821626e+02 0 0 0
2392 96 2 0.0000000000000000e+00 -9.5389838748219418e+01 -3.2748210452412707e+01 -1.1118618682373469e+02 0 0 0
3168 127 4 0.0000000000000000e+00 -8.0652258605701604e+01 -3.3473180651781398e+01 -1.1676112122037439e+02 0 0 0
3167 127 4 0.0000000000000000e+00 -7.5091107148792233e+01 -2.7614774560795777e+01 -1.2314005139175131e+02 0 0 0
3156 127 4 0.0000000000000000e+00 -7.1694644284299500e+01 -2.5247099991651929e+01 -1.1182034959664897e+02 0 0 0
3166 127 4 0.0000000000000000e+00 -6.5487656091307912e+01 -2.4864616620394106e+01 -1.2383984950685178e+02 0 0 0
3155 127 4 0.0000000000000000e+00 -6.3956528228925897e+01 -3.0888232992277558e+01 -1.1555057313783661e+02 0 0 0
3164 127 4 0.0000000000000000e+00 -5.1688675290920216e+01 -2.1079737527342264e+01 -1.1619546871527007e+02 0 0 0
580 24 2 0.0000000000000000e+00 -4.2975143230817814e+01 -2.2028297451665715e+01 -1.2289952066157424e+02 0 0 0
1170 47 2 0.0000000000000000e+00 -2.7554086394062260e+01 -2.6088328762963030e+01 -1.1149445420799810e+02 0 0 0
1171 47 2 0.0000000000000000e+00 -1.7938982736176751e+01 -2.4765109651239477e+01 -1.0989956737705216e+02 0 0 0
1839 74 2 0.0000000000000000e+00 -1.6791779329223974e+01 -2.9942553365082212e+01 -1.1990818558878077e+02 0 0 0
1453 59 2 0.0000000000000000e+00 -6.1773115391736200e+00 -2.4904021453372167e+01 -1.2134018607442962e+02 0 0 0
3300 132 3 0.0000000000000000e+00 -9.6359299171509232e+00 -2.9264750869842587e+01 -1.1308561458379710e+02 0 0 0
3402 137 4 0.0000000000000000e+00 7.5196089291312997e+00 -3.1319055904004966e+01 -1.2086931758749230e+02 0 0 0
3403 137 4 0.0000000000000000e+00 5.5440936271351600e+00 -2.1573739178903701e+01 -1.2070011049202759e+02 0 0 0
2877 116 4 0.0000000000000000e+00 -1.0906506408530822e+02 -1.0671184006170945e+01 -1.1141880483017457e+02 0 0 0
2878 116 4 0.0000000000000000e+00 -9.9786906443006558e+01 -6.8827388617736274e+00 -1.1171523196796092e+02 0 0 0
1980 80 2 0.0000000000000000e+00 -9.1312218164255285e+01 -1.9301875544683917e+01 -1.1363510277045710e+02 0 0 0
3157 127 3 0.0000000000000000e+00 -7.2058222510228390e+01 -1.6330346952939848e+01 -1.1757623250241474e+02 0 0 0
3158 127 4 0.0000000000000000e+00 -6.4169359779783093e+01 -1.2403567088355105e+01 -1.2240910528731220e+02 0 0 0
2168 87 2 0.0000000000000000e+00 -5.8040161365739976e+01 -1.0801468739995869e+01 -1.1382379211660916e+02 0 0 0
2167 87 2 0.0000000000000000e+00 -5.0296392313933389e+01 -1.2273384935616741e+01 -1.1982983119469272e+02 0 0 0
579 24 2 0.0000000000000000e+00 -3.3714013727376155e+01 -1.8075147208007838e+01 -1.2047925878374647e+02 0 0 0
3162 127 4 0.0000000000000000e+00 -4.0146004528303685e+01 -7.5437141669287264e+00 -1.0994509164518136e+02 0 0 0
3163 127 3 0.0000000000000000e+00 -4.3774494851308958e+01 -1.7206953986262242e+01 -1.1112514635856145e+02 0 0 0
2166 87 2 0.0000000000000000e+00 -4.0391030492143756e+01 -9.7869588899489415e+00 -1.2041750150281038e+02 0 0 0
2165 87 2 0.0000000000000000e+00 -3.1755199589078632e+01 -9.8848497103222801e+00 -1.1563222692428434e+02 0 0 0
578 24 2 0.0000000000000000e+00 -2.4523055252122045e+01 -1.7476742413732001e+01 -1.1801191648150450e+02 0 0 0
2164 87 2 0.0000000000000000e+00 -2.2645447880021386e+01 -8.5920143373632705e+00 -1.1094618671578067e+02 0 0 0
577 24 2 0.0000000000000000e+00 -1.6337861550386979e+01 -1.1492706863952177e+01 -1.2113302391428842e+02 0 0 0
576 24 1 0.0000000000000000e+00 -8.8649304956403565e+00 -1.5949919411056664e+01 -1.1542455458243018e+02 0 0 0
3176 128 3 0.0000000000000000e+00 -5.7963388476735451e+00 -8.0755285193590627e+00 -1.2290308481975160e+02 0 0 0
3404 137 4 0.0000000000000000e+00 8.4378710448434475e+00 -1.1862390025364729e+01 -1.2097170673958473e+02 0 0 0
2009 81 2 0.0000000000000000e+00 -8.7174829618698382e+01 -1.7082880226742694e+00 -1.2043310825643334e+02 0 0 0
2879 116 4 0.0000000000000000e+00 -9.4092724018578267e+01 1.7737911766316907e+00 -1.1205923510660368e+02 0 0 0
2010 81 2 0.0000000000000000e+00 -7.8250445868102076e+01 -4.4877591972439639e+00 -1.2349418554534772e+02 0 0 0
2173 87 2 0.0000000000000000e+00 -6.0629727016671687e+01 4.7635251069295501e+00 -1.2011423781136540e+02 0 0 0
2172 87 2 0.0000000000000000e+00 -6.8881941930619377e+01 2.0051919354400622e+00 -1.1508464712994960e+02 0 0 0
3159 127 4 0.0000000000000000e+00 -5.7887448715214703e+01 -4.9083900858950509e+00 -1.2345892284049413e+02 0 0 0
3160 127 4 0.0000000000000000e+00 -4.8048822111245308e+01 -1.5150385185310280e+00 -1.2351165110213330e+02 0 0 0
2070 83 2 0.0000000000000000e+00 -4.9244468728112913e+01 6.8417352238078344e-01 -1.1189162435444696e+02 0 0 0