LAMMPS data file via write_data, version 5 Jun 2019, timestep = 380000000

5000 atoms
4 atom types
5295 bonds
3 bond types
4600 angles
2 angle types

-2.5000000000000000e+02 2.5000000000000000e+02 xlo xhi
-2.5000000000000000e+02 2.5000000000000000e+02 ylo yhi
-2.5000000000000000e+02 2.5000000000000000e+02 zlo zhi

Masses

1 1000
2 1000
3 1000
4 1000

Pair Coeffs # lj/cut

1 0.3 10
2 0.3 10
3 0.3 10
4 0.3 10

Bond Coeffs # harmonic

1 3 10
2 3 10
3 3 11.22

Angle Coeffs # cosine

1 2
2 2

Atoms # full

275 11 1 0.0000000000000000e+00 -5.9888490016907483e+01 -4.0604046508826713e+01 -1.5500015097453274e+02 0 0 0
274 11 2 0.0000000000000000e+00 -5.0062417877268253e+01 -4.1446275024373314e+01 -1.5596753920359694e+02 0 0 0
4460 179 4 0.0000000000000000e+00 -2.6746118256505131e+01 -3.9472285610901928e+01 -1.5730973028648168e+02 0 0 0
4461 179 4 0.0000000000000000e+00 -3.2515918215194553e+01 -3.2020916464204717e+01 -1.5533215248989362e+02 0 0 0
3059 123 4 0.0000000000000000e+00 -3.8398638614661159e+01 -1.6084827992309251e+01 -1.5415047140384488e+02 0 0 0
4462 179 4 0.0000000000000000e+00 -2.9384578490945483e+01 -2.3589795667885621e+01 -1.5964641953929228e+02 0 0 0
4463 179 3 0.0000000000000000e+00 -3.0744124867029175e+01 -1.4337476381762420e+01 -1.6335059468098962e+02 0 0 0
2244 90 1 0.0000000000000000e+00 -2.2102738414334585e+01 -1.4706246385402437e+01 -1.5672050323106259e+02 0 0 0
4464 179 4 0.0000000000000000e+00 -3.7300743669344357e+01 -6.6830933522163853e+00 -1.6206207888391140e+02 0 0 0
4465 179 4 0.0000000000000000e+00 -4.2785818653529560e+01 1.6896608626203122e+00 -1.5936168663195735e+02 0 0 0
2243 90 2 0.0000000000000000e+00 -2.4519372602269481e+01 -6.0375863168439121e+00 -1.6152456446393163e+02 0 0 0
3058 123 4 0.0000000000000000e+00 -3.1317010479001077e+01 -9.2728316742908721e+00 -1.5279632365319372e+02 0 0 0
2242 90 2 0.0000000000000000e+00 -3.0573522219836814e+01 1.0140390632009180e+00 -1.5934365187972361e+02 0 0 0
1992 80 2 0.0000000000000000e+00 -6.9893094313346680e+01 -7.1087836046237030e+01 -1.3852967098034088e+02 0 0 0
271 11 2 0.0000000000000000e+00 -3.0815551993268194e+01 -5.3931946273807725e+01 -1.4131835991124041e+02 0 0 0
3065 123 4 0.0000000000000000e+00 -8.0601267842830595e+01 -5.1259816582340626e+01 -1.3967703183218811e+02 0 0 0
3064 123 4 0.0000000000000000e+00 -7.1851025185568446e+01 -4.6101296221191795e+01 -1.3973682416488532e+02 0 0 0
3063 123 3 0.0000000000000000e+00 -6.4159410479471063e+01 -4.1119856396865686e+01 -1.4436902849202977e+02 0 0 0
4454 179 4 0.0000000000000000e+00 -4.6727813592077133e+01 -4.4417818400231845e+01 -1.3892625321215513e+02 0 0 0
273 11 2 0.0000000000000000e+00 -4.2808361760192994e+01 -4.1727628455598527e+01 -1.4896368378416915e+02 0 0 0
272 11 2 0.0000000000000000e+00 -3.9840063311343279e+01 -4.9973711082870032e+01 -1.4457644819939725e+02 0 0 0
4459 179 4 0.0000000000000000e+00 -2.7561625472273185e+01 -4.0782101268380110e+01 -1.4770057195424388e+02 0 0 0
4458 179 4 0.0000000000000000e+00 -2.4455628410271569e+01 -3.9942696243856460e+01 -1.3781163484186388e+02 0 0 0
3062 123 4 0.0000000000000000e+00 -5.6142802926764936e+01 -3.5579507923103890e+01 -1.4428791587215349e+02 0 0 0
3061 123 4 0.0000000000000000e+00 -4.7007754744193399e+01 -3.2107380538599998e+01 -1.4612354455481378e+02 0 0 0
2246 90 2 0.0000000000000000e+00 -2.2529297137634703e+01 -2.6365664653030443e+01 -1.4164054901903165e+02 0 0 0
1846 74 2 0.0000000000000000e+00 -5.9016830563400617e+01 -1.4039837177227907e+01 -1.3879872974635686e+02 0 0 0
3060 123 4 0.0000000000000000e+00 -4.1750681017700913e+01 -2.4156688885169117e+01 -1.4900415056911552e+02 0 0 0
2245 90 2 0.0000000000000000e+00 -2.3059982650523732e+01 -2.2696431358746128e+01 -1.5070318625800223e+02 0 0 0
3406 137 4 0.0000000000000000e+00 -1.9764055705749172e+01 -1.2242699059174807e+01 -1.4315885325581570e+02 0 0 0
3405 137 4 0.0000000000000000e+00 -1.1266482754397105e+01 -1.6488990409670198e+01 -1.4382429603228331e+02 0 0 0
1847 74 2 0.0000000000000000e+00 -5.8824574896810262e+01 -5.5874874066837208e+00 -1.4381597083809507e+02 0 0 0
1848 74 2 0.0000000000000000e+00 -6.0639352245142625e+01 1.3297328470664538e+00 -1.5071694730339075e+02 0 0 0
3057 123 3 0.0000000000000000e+00 -3.9456834728883173e+01 -5.5967337925041161e+00 -1.4915119931890192e+02 0 0 0
3408 137 4 0.0000000000000000e+00 -3.7561122049108363e+01 -1.0205070476942849e+01 -1.3872041355443798e+02 0 0 0
3409 137 4 0.0000000000000000e+00 -4.6399525322281058e+01 -5.3045528662669170e+00 -1.3758721945809828e+02 0 0 0
3056 123 4 0.0000000000000000e+00 -4.6214798891684374e+01 1.5053713196054579e+00 -1.4579875762914466e+02 0 0 0
401 17 1 0.0000000000000000e+00 -3.7833176483726128e+01 3.7830750502611510e-01 -1.4026406327486444e+02 0 0 0
402 17 2 0.0000000000000000e+00 -2.8047727432150140e+01 -4.4593403771635493e-01 -1.4271268830078725e+02 0 0 0
404 17 2 0.0000000000000000e+00 -9.1932298907523062e+00 -2.1768509289869309e+00 -1.4017632112487064e+02 0 0 0
403 17 2 0.0000000000000000e+00 -1.8903034973938109e+01 -5.2108037636423366e-01 -1.3839351714141463e+02 0 0 0
4195 168 4 0.0000000000000000e+00 -6.1345353253722934e+01 -8.4051191797375111e+01 -1.2375349417390935e+02 0 0 0
1991 80 2 0.0000000000000000e+00 -7.9960172668996321e+01 -6.9453574082894050e+01 -1.3628181778117417e+02 0 0 0
1993 80 2 0.0000000000000000e+00 -6.1711752890043968e+01 -7.5303181542128570e+01 -1.3348794858902988e+02 0 0 0
1994 80 1 0.0000000000000000e+00 -5.4148721834337238e+01 -6.9573584324850600e+01 -1.3118645297944951e+02 0 0 0
4194 168 3 0.0000000000000000e+00 -5.3687523988951050e+01 -7.7456780022289735e+01 -1.2361686000365923e+02 0 0 0
1990 80 2 0.0000000000000000e+00 -7.8214766864224202e+01 -6.6312204178607303e+01 -1.2677926961905656e+02 0 0 0
3066 123 4 0.0000000000000000e+00 -8.5483924371134563e+01 -5.7360332683847361e+01 -1.3372067129202313e+02 0 0 0
3067 123 4 0.0000000000000000e+00 -8.4855605410874304e+01 -5.8054170709087295e+01 -1.2303465888238264e+02 0 0 0
1995 80 2 0.0000000000000000e+00 -5.0317751117778137e+01 -6.4766408731863422e+01 -1.2313043650984837e+02 0 0 0
270 11 2 0.0000000000000000e+00 -2.7731293150703568e+01 -6.0753451747615948e+01 -1.3470730809765840e+02 0 0 0
269 11 1 0.0000000000000000e+00 -2.3871221517874741e+01 -6.2050545172051180e+01 -1.2566725389444909e+02 0 0 0
4777 192 4 0.0000000000000000e+00 -1.3764426535999165e+01 -5.6338728538293836e+01 -1.3455199249992503e+02 0 0 0
4776 192 3 0.0000000000000000e+00 -1.8636235606636898e+01 -6.5168672643976578e+01 -1.3558185223607765e+02 0 0 0
4152 167 4 0.0000000000000000e+00 -5.4557496097389759e+01 -3.9655984027957274e+01 -1.2323495107800767e+02 0 0 0
4455 179 4 0.0000000000000000e+00 -4.0443857397548527e+01 -5.0126025740410000e+01 -1.3446937713235411e+02 0 0 0
4456 179 4 0.0000000000000000e+00 -3.2227862149690601e+01 -4.8899961775055480e+01 -1.2982934202981258e+02 0 0 0
4457 179 3 0.0000000000000000e+00 -2.3310512801074125e+01 -4.4025521994162077e+01 -1.2873566404922772e+02 0 0 0
1831 74 2 0.0000000000000000e+00 -1.1859866409377039e+01 -4.4085198864140281e+01 -1.2458564483910222e+02 0 0 0
4778 192 4 0.0000000000000000e+00 -7.0597232146295816e+00 -4.9932688326608442e+01 -1.3179002744199241e+02 0 0 0
4477 180 4 0.0000000000000000e+00 -8.0411023572532642e+01 -3.9180164867385344e+01 -1.2760743485423286e+02 0 0 0
4478 180 4 0.0000000000000000e+00 -7.4019873485715692e+01 -3.2297910823856917e+01 -1.2344729499069980e+02 0 0 0
1844 74 1 0.0000000000000000e+00 -5.5378747063260626e+01 -3.0335698601662497e+01 -1.2972618296292862e+02 0 0 0
4453 179 4 0.0000000000000000e+00 -4.7533969548643718e+01 -3.6062624895908911e+01 -1.3331524216813119e+02 0 0 0
4452 179 4 0.0000000000000000e+00 -4.5188233768021277e+01 -2.6835705856401589e+01 -1.3016486242198434e+02 0 0 0
1842 74 2 0.0000000000000000e+00 -3.8275550571821377e+01 -3.2121276952136050e+01 -1.2372853585960266e+02 0 0 0
1832 74 1 0.0000000000000000e+00 -1.6355534016320171e+01 -3.5190946209157644e+01 -1.2603866861101378e+02 0 0 0
1833 74 2 0.0000000000000000e+00 -1.9563841076468357e+01 -2.5906591309283094e+01 -1.2516296220394339e+02 0 0 0
1053 43 2 0.0000000000000000e+00 -6.1890016981548733e+01 -1.2384059015499286e+01 -1.2398509208221409e+02 0 0 0
1845 74 2 0.0000000000000000e+00 -5.6436547991159422e+01 -2.1230293456041096e+01 -1.3224380454259716e+02 0 0 0
1054 43 2 0.0000000000000000e+00 -5.1499579236653709e+01 -1.2658128552675294e+01 -1.2441883458488253e+02 0 0 0
1055 43 2 0.0000000000000000e+00 -4.4411543293274256e+01 -1.3587788408700932e+01 -1.3121342656907953e+02 0 0 0
2247 90 2 0.0000000000000000e+00 -2.7106024678778191e+01 -2.4021490354012411e+01 -1.3298266623876120e+02 0 0 0
1451 59 1 0.0000000000000000e+00 -2.3782556815664051e+01 -1.4529014963263895e+01 -1.2667544372037008e+02 0 0 0
2248 90 2 0.0000000000000000e+00 -3.0054035155791706e+01 -2.2710031122305804e+01 -1.2331765659140557e+02 0 0 0
1452 59 2 0.0000000000000000e+00 -1.6048758802421826e+01 -1.3783639844214674e+01 -1.3310858297989523e+02 0 0 0
3412 137 4 0.0000000000000000e+00 -7.2482693776429116e+01 -2.6940346642973458e+00 -1.2421134020292196e+02 0 0 0
3411 137 4 0.0000000000000000e+00 -6.3049433513688591e+01 -1.7657543925661521e+00 -1.2754922065816201e+02 0 0 0
3410 137 4 0.0000000000000000e+00 -5.3817744537215809e+01 -3.6146815073874761e+00 -1.3140446253983032e+02 0 0 0
1056 43 2 0.0000000000000000e+00 -3.6558756369038910e+01 -8.4327631495421755e+00 -1.2847747335091648e+02 0 0 0
3407 137 3 0.0000000000000000e+00 -2.7668025082848711e+01 -1.0166532441816017e+01 -1.3678126525451194e+02 0 0 0
1057 43 1 0.0000000000000000e+00 -3.1816393598559692e+01 2.9106575077061048e-01 -1.2978140810892745e+02 0 0 0
1059 43 2 0.0000000000000000e+00 -1.6425733946993677e+01 -4.3192617523398846e+00 -1.2648579123854087e+02 0 0 0
4198 168 4 0.0000000000000000e+00 -8.8183417944838737e+01 -8.6875904737141411e+01 -1.1792675540827763e+02 0 0 0
4199 168 4 0.0000000000000000e+00 -9.1307881684142885e+01 -7.8633893802005119e+01 -1.1243779069062892e+02 0 0 0
4200 168 3 0.0000000000000000e+00 -9.5033782075937779e+01 -6.9337796223782078e+01 -1.1381509484906159e+02 0 0 0
4197 168 4 0.0000000000000000e+00 -7.9855117425726050e+01 -8.1478682647294661e+01 -1.1785043040688574e+02 0 0 0
1989 80 2 0.0000000000000000e+00 -7.9153217081673205e+01 -6.9904831614190243e+01 -1.1789749627624560e+02 0 0 0
1988 80 1 0.0000000000000000e+00 -8.4526992681701216e+01 -6.9222675179689830e+01 -1.0957031641953796e+02 0 0 0
4196 168 4 0.0000000000000000e+00 -7.0063992966472838e+01 -7.9537079648525690e+01 -1.1956483956461392e+02 0 0 0
4193 168 4 0.0000000000000000e+00 -4.5154554733280428e+01 -7.3828756891860763e+01 -1.1960508338458747e+02 0 0 0
266 11 2 0.0000000000000000e+00 -4.1322741284030577e+01 -7.7478692757841955e+01 -1.1160135678815531e+02 0 0 0
267 11 2 0.0000000000000000e+00 -3.2851049473311285e+01 -7.4459549985945088e+01 -1.1664143398095584e+02 0 0 0
268 11 2 0.0000000000000000e+00 -2.5331303715650513e+01 -6.7921653261361698e+01 -1.1720351731661695e+02 0 0 0
3068 123 4 0.0000000000000000e+00 -7.9953486509935672e+01 -5.7242607763532355e+01 -1.1397483209514422e+02 0 0 0
1996 80 2 0.0000000000000000e+00 -5.5321345920024903e+01 -6.1199434668410674e+01 -1.1472657522269542e+02 0 0 0
4192 168 4 0.0000000000000000e+00 -4.3566542814346121e+01 -6.6824972506685810e+01 -1.1207586041923828e+02 0 0 0
1169 47 1 0.0000000000000000e+00 -3.2744189124315106e+01 -5.5445029501423100e+01 -1.2254141557234691e+02 0 0 0
1168 47 2 0.0000000000000000e+00 -3.3943523809912527e+01 -6.2796070543864552e+01 -1.1606290340803639e+02 0 0 0
2062 83 2 0.0000000000000000e+00 -8.6290295552781018e+01 -4.3934629158121687e+01 -1.1102257029927813e+02 0 0 0
2063 83 1 0.0000000000000000e+00 -7.7464770000305762e+01 -4.1823275397727478e+01 -1.1469767274311843e+02 0 0 0
2064 83 2 0.0000000000000000e+00 -6.8889181220807870e+01 -4.2588030852804778e+01 -1.1966019680429923e+02 0 0 0
2065 83 2 0.0000000000000000e+00 -6.0559616018783480e+01 -4.3432141513782838e+01 -1.1363317347475179e+02 0 0 0
4153 167 4 0.0000000000000000e+00 -4.7469084025285419e+01 -4.4223202526794765e+01 -1.1799289873091445e+02 0 0 0
1170 47 2 0.0000000000000000e+00 -3.5835646430311101e+01 -4.5339992283215899e+01 -1.2137163360537204e+02 0 0 0
1171 47 2 0.0000000000000000e+00 -3.4626062991633269e+01 -3.9591041082482313e+01 -1.1341740447351567e+02 0 0 0
4154 167 4 0.0000000000000000e+00 -4.1842625173101382e+01 -4.4982729926503367e+01 -1.0995280529211652e+02 0 0 0
2725 109 3 0.0000000000000000e+00 -2.8890530085478972e+01 -5.0571044150799025e+01 -1.1364552311218600e+02 0 0 0
4476 180 3 0.0000000000000000e+00 -8.6568685435196670e+01 -3.8206770585737928e+01 -1.2018396044021023e+02 0 0 0
4479 180 4 0.0000000000000000e+00 -6.7889664048916558e+01 -2.5776642738773866e+01 -1.2037013875207327e+02 0 0 0
4151 167 3 0.0000000000000000e+00 -5.8678567251365713e+01 -3.0994358074034714e+01 -1.1902507148318148e+02 0 0 0
1843 74 2 0.0000000000000000e+00 -4.8560889609415348e+01 -3.1533041155715225e+01 -1.2284507327644201e+02 0 0 0
2066 83 2 0.0000000000000000e+00 -5.3603273745884735e+01 -3.8171969998888812e+01 -1.0923449686646590e+02 0 0 0
2068 83 2 0.0000000000000000e+00 -4.5661913545183822e+01 -3.5698338770725520e+01 -1.1467340228164714e+02 0 0 0
2069 83 1 0.0000000000000000e+00 -4.7176493909688780e+01 -2.5780200102189820e+01 -1.1414607223269209e+02 0 0 0
1841 74 2 0.0000000000000000e+00 -3.0703083472264705e+01 -3.0409180160591653e+01 -1.1713042540550906e+02 0 0 0
1840 74 2 0.0000000000000000e+00 -2.4209985850282699e+01 -3.6877612993203591e+01 -1.2071675279599695e+02 0 0 0
1834 74 2 0.0000000000000000e+00 -2.2309633014415514e+01 -2.7095824620054021e+01 -1.1527704980380663e+02 0 0 0
1839 74 2 0.0000000000000000e+00 -1.4307088154018505e+01 -3.9045681185131727e+01 -1.1648536198512146e+02 0 0 0
4480 180 4 0.0000000000000000e+00 -6.3650860052240141e+01 -1.8711420584294963e+01 -1.1489903631875116e+02 0 0 0
2070 83 2 0.0000000000000000e+00 -5.3813546805153919e+01 -1.8096922764239988e+01 -1.1169172283018975e+02 0 0 0
4451 179 3 0.0000000000000000e+00 -4.4265820461416375e+01 -1.9176399655337576e+01 -1.2296457180439350e+02 0 0 0
2249 90 2 0.0000000000000000e+00 -3.3175145894216037e+01 -1.6247502871942437e+01 -1.1660533095099899e+02 0 0 0
3178 128 4 0.0000000000000000e+00 -2.4748491654481231e+01 -1.5711823942542170e+01 -1.0984087453206125e+02 0 0 0
3179 128 4 0.0000000000000000e+00 -1.5463584232933966e+01 -1.3105977826911706e+01 -1.1257295078390926e+02 0 0 0
1052 43 2 0.0000000000000000e+00 -6.2986453995238719e+01 -5.3267502163996765e+00 -1.1687751685129115e+02 0 0 0
1051 43 1 0.0000000000000000e+00 -6.8333573955869952e+01 -1.9654269514531308e+00 -1.0916508639187646e+02 0 0 0
2071 83 2 0.0000000000000000e+00 -5.4235674744707097e+01 -7.7485962186053339e+00 -1.1096582418175647e+02 0 0 0
2072 83 2 0.0000000000000000e+00 -5.2280466659028626e+01 2.4178817427168378e+00 -1.1276632570779839e+02 0 0 0
2996 120 4 0.0000000000000000e+00 -3.9870981668209815e+01 1.6920170585052912e+00 -1.1503583348909812e+02 0 0 0
2250 90 1 0.0000000000000000e+00 -4.1104889640903721e+01 -9.9482149105475450e+00 -1.1445705320559473e+02 0 0 0
1060 43 2 0.0000000000000000e+00 -1.0229460394889726e+01 -1.0085725519503034e+01 -1.2124997097998855e+02 0 0 0
3180 128 4 0.0000000000000000e+00 -1.4962430714224537e+01 -2.7876068331609507e+00 -1.1248217424843497e+02 0 0 0
3071 123 4 0.0000000000000000e+00 -8.5340724265550378e+01 -7.5390830199914788e+01 -9.8792781675205390e+01 0 0 0
3070 123 4 0.0000000000000000e+00 -7.6677274960584697e+01 -7.2318533559506449e+01 -1.0367773488533678e+02 0 0 0
2391 96 2 0.0000000000000000e+00 -7.2960939032390144e+01 -8.0998699703662297e+01 -1.0139666760851459e+02 0 0 0
1998 80 2 0.0000000000000000e+00 -5.6711763800512998e+01 -6.9459127272644977e+01 -9.7140569393122490e+01 0 0 0
265 11 2 0.0000000000000000e+00 -3.7102756068774411e+01 -7.2643267117970694e+01 -1.0394551738454250e+02 0 0 0
3069 123 3 0.0000000000000000e+00 -7.4671568203926526e+01 -6.4453004946909317e+01 -1.0860863017942499e+02 0 0 0
1987 80 2 0.0000000000000000e+00 -8.3370855352710876e+01 -6.3824347921639564e+01 -1.0099903943118440e+02 0 0 0
1986 80 2 0.0000000000000000e+00 -8.3995685077368009e+01 -5.4990230002101569e+01 -9.6259085863828190e+01 0 0 0
581 24 2 0.0000000000000000e+00 -6.1712244513143652e+01 -5.6132364059323628e+01 -1.0187279029785540e+02 0 0 0
582 24 1 0.0000000000000000e+00 -7.1439566949568828e+01 -5.4377081602186749e+01 -1.0448563617427452e+02 0 0 0
1997 80 2 0.0000000000000000e+00 -5.7437560515258291e+01 -6.3910897507901183e+01 -1.0527014522858576e+02 0 0 0
4191 168 4 0.0000000000000000e+00 -4.1766837620538794e+01 -6.1494502992817345e+01 -1.0357298417318675e+02 0 0 0
264 11 2 0.0000000000000000e+00 -3.4976748382828113e+01 -6.6389555505069794e+01 -9.6109327560586379e+01 0 0 0
1166 47 2 0.0000000000000000e+00 -2.2258185946511134e+01 -6.5502952546230588e+01 -1.0030453082239482e+02 0 0 0
1167 47 2 0.0000000000000000e+00 -2.9330437621107645e+01 -6.6240869429039421e+01 -1.0737224524884439e+02 0 0 0
3084 124 4 0.0000000000000000e+00 -1.2247374543063234e+01 -6.5154429036496211e+01 -1.0162088807240580e+02 0 0 0
3083 124 4 0.0000000000000000e+00 -1.5922651790742801e+01 -5.7365429625297850e+01 -9.7879446464130325e+01 0 0 0
584 24 2 0.0000000000000000e+00 -8.8370430976891910e+01 -4.5919720750571997e+01 -1.0000318301998814e+02 0 0 0
583 24 2 0.0000000000000000e+00 -7.9547060635306750e+01 -4.8374901869405640e+01 -1.0454807571801062e+02 0 0 0
580 24 2 0.0000000000000000e+00 -5.1390396915497192e+01 -5.3348587941151585e+01 -1.0234604372944526e+02 0 0 0
579 24 2 0.0000000000000000e+00 -4.9882220197363054e+01 -4.3788982173674306e+01 -9.8704259512704922e+01 0 0 0
4155 167 4 0.0000000000000000e+00 -3.5853031382483330e+01 -4.9846178593289736e+01 -1.0320758574684513e+02 0 0 0
2724 109 4 0.0000000000000000e+00 -2.5476986367545891e+01 -4.3973131691183355e+01 -1.0641412691498152e+02 0 0 0
2060 83 2 0.0000000000000000e+00 -1.0174435843832559e+02 -3.4486290037182187e+01 -1.0269351266043198e+02 0 0 0
2059 83 2 0.0000000000000000e+00 -1.0717439448360416e+02 -2.9600211557903812e+01 -9.5670372778750945e+01 0 0 0
2061 83 2 0.0000000000000000e+00 -9.5043399368020701e+01 -3.9111694391501082e+01 -1.0868533758376081e+02 0 0 0
585 24 2 0.0000000000000000e+00 -9.0916540632786067e+01 -3.6439700554759767e+01 -9.8939612179867495e+01 0 0 0
2384 96 2 0.0000000000000000e+00 -6.1250333704654302e+01 -3.1763034072116412e+01 -9.7409213515136670e+01 0 0 0
2067 83 2 0.0000000000000000e+00 -4.4479606753104058e+01 -3.7185632565589152e+01 -1.0493020288084612e+02 0 0 0
1172 47 2 0.0000000000000000e+00 -3.4013368234448293e+01 -3.4353977509563990e+01 -1.0423735703577755e+02 0 0 0
1173 47 2 0.0000000000000000e+00 -3.0034921734101868e+01 -2.7883918972593229e+01 -9.7314120975868875e+01 0 0 0
2723 109 4 0.0000000000000000e+00 -2.4365144693089093e+01 -3.5964785251596666e+01 -1.0094526159161187e+02 0 0 0
3300 132 3 0.0000000000000000e+00 -1.0720585386983315e+01 -3.7328597647064669e+01 -1.0122772688820982e+02 0 0 0
1836 74 2 0.0000000000000000e+00 -1.0997316779507067e+01 -2.6042167261495770e+01 -1.0513384494963486e+02 0 0 0
2722 109 4 0.0000000000000000e+00 -1.7702645040998302e+01 -3.2712587762468338e+01 -9.4892421554115828e+01 0 0 0
4481 180 4 0.0000000000000000e+00 -6.4453271316649321e+01 -1.1703990031976447e+01 -1.0768404719127454e+02 0 0 0
3176 128 3 0.0000000000000000e+00 -3.9938771446358238e+01 -2.4829725284296035e+01 -1.0226479348104877e+02 0 0 0
2164 87 2 0.0000000000000000e+00 -4.6508200787052601e+01 -1.3160782667288972e+01 -9.4977568359293613e+01 0 0 0
3177 128 4 0.0000000000000000e+00 -3.1619797522757018e+01 -2.1922616103261472e+01 -1.0658646250350716e+02 0 0 0
1835 74 2 0.0000000000000000e+00 -2.1217256676606066e+01 -2.4860487601090728e+01 -1.0561404598408188e+02 0 0 0
2160 87 2 0.0000000000000000e+00 -1.0062056839750122e+01 -1.7246785882409970e+01 -9.9497661060788118e+01 0 0 0
2161 87 2 0.0000000000000000e+00 -1.9545632491125936e+01 -1.2369733862880240e+01 -9.9807637980939617e+01 0 0 0
4482 180 3 0.0000000000000000e+00 -6.3075817135610187e+01 -4.4980343228057595e+00 -1.0063569981724422e+02 0 0 0
2017 81 2 0.0000000000000000e+00 -7.0856836936066244e+01 1.5256951668361156e+00 -9.8711048914015052e+01 0 0 0
3627 146 4 0.0000000000000000e+00 -4.8284123553415725e+01 -2.5867534471866920e+00 -9.6149511608774702e+01 0 0 0
3626 146 3 0.0000000000000000e+00 -4.4159796516798743e+01 -5.6600951506695800e+00 -1.0466094433351806e+02 0 0 0
2994 120 3 0.0000000000000000e+00 -3.3688446195792217e+01 2.4255272878490355e+00 -9.6886298145195397e+01 0 0 0
661 27 2 0.0000000000000000e+00 -2.3960607673730909e+01 2.1666007188296605e+00 -9.9961581508955945e+01 0 0 0
2393 96 2 0.0000000000000000e+00 -7.4593398688383672e+01 -8.6068142780227944e+01 -8.5449531550478326e+01 0 0 0
3072 123 4 0.0000000000000000e+00 -8.5690247169202053e+01 -6.9819314129577606e+01 -9.0598972873966858e+01 0 0 0
2392 96 2 0.0000000000000000e+00 -7.6342188291607513e+01 -7.8584880449361734e+01 -9.2210009928302057e+01 0 0 0
3175 127 3 0.0000000000000000e+00 -7.8168815928958480e+01 -7.0530097720327959e+01 -8.3683648154624819e+01 0 0 0
2390 96 2 0.0000000000000000e+00 -6.6743230798495475e+01 -7.8726194588713142e+01 -9.3556749937537091e+01 0 0 0
2389 96 2 0.0000000000000000e+00 -6.7613787200607661e+01 -7.2989310083327382e+01 -8.5379209796290951e+01 0 0 0
1999 80 2 0.0000000000000000e+00 -5.6944044608092995e+01 -7.5176048367544198e+01 -8.8134514575910003e+01 0 0 0
4158 167 4 0.0000000000000000e+00 -4.1121841239426971e+01 -7.0529666790232312e+01 -8.7763047558976140e+01 0 0 0
1164 47 2 0.0000000000000000e+00 -1.2678688474625691e+01 -7.4489788108521253e+01 -8.6637677227564694e+01 0 0 0
1165 47 2 0.0000000000000000e+00 -1.6154250509730399e+01 -6.7647576897718452e+01 -9.2660514704039798e+01 0 0 0
2300 92 1 0.0000000000000000e+00 -1.2080773567372367e+02 -5.5687677725845234e+01 -8.4374882771536349e+01 0 0 0
3845 154 4 0.0000000000000000e+00 -1.0308023974300264e+02 -5.4920903340540832e+01 -8.4512059241954987e+01 0 0 0
3846 154 4 0.0000000000000000e+00 -1.0242737692282890e+02 -6.4778997902533916e+01 -8.1445457708090302e+01 0 0 0
3073 123 4 0.0000000000000000e+00 -8.6363687681657467e+01 -6.3034123221055424e+01 -8.3431093795837270e+01 0 0 0
2388 96 1 0.0000000000000000e+00 -7.0431153217394638e+01 -6.3319743475612562e+01 -8.2364950569557934e+01 0 0 0
2387 96 2 0.0000000000000000e+00 -6.9460438246546303e+01 -5.6387312883714557e+01 -8.9512244604483612e+01 0 0 0
4189 168 4 0.0000000000000000e+00 -4.9099868034740631e+01 -6.0177227693035334e+01 -8.5573371809358761e+01 0 0 0
4190 168 4 0.0000000000000000e+00 -4.4768633128031681e+01 -6.0722375186269275e+01 -9.4544307026714094e+01 0 0 0
4157 167 3 0.0000000000000000e+00 -3.6774796666196771e+01 -6.1404684631569587e+01 -8.6989572232147978e+01 0 0 0
4156 167 4 0.0000000000000000e+00 -3.5565539191938853e+01 -5.4827406869579569e+01 -9.4322783182291417e+01 0 0 0
263 11 1 0.0000000000000000e+00 -2.8190907208907912e+01 -6.7185297741845659e+01 -8.8687207425066745e+01 0 0 0
3082 124 3 0.0000000000000000e+00 -2.3505579542029995e+01 -5.7504075459010380e+01 -9.1832487416060005e+01 0 0 0
1930 78 2 0.0000000000000000e+00 -8.9026559807693442e+00 -6.4796714295868284e+01 -8.2884173301307001e+01 0 0 0
4850 194 3 0.0000000000000000e+00 -1.2746607496312261e+02 -4.6994952608881832e+01 -8.3785591908300745e+01 0 0 0
3844 154 3 0.0000000000000000e+00 -1.0374882559804679e+02 -4.5022229759933374e+01 -8.7009702382254034e+01 0 0 0
1985 80 2 0.0000000000000000e+00 -7.8471125650649839e+01 -4.8292679794904878e+01 -9.0991975776081972e+01 0 0 0
1984 80 2 0.0000000000000000e+00 -8.3898691332109422e+01 -4.1409960036559291e+01 -8.5927070262142806e+01 0 0 0
2385 96 2 0.0000000000000000e+00 -6.2744745260587500e+01 -4.1191854886166347e+01 -9.3832635644957961e+01 0 0 0
2386 96 2 0.0000000000000000e+00 -6.2181593521863306e+01 -5.1250910146457471e+01 -9.3065365856112436e+01 0 0 0
3997 160 4 0.0000000000000000e+00 -4.8912975604578016e+01 -4.5368359513844815e+01 -8.5713551388650814e+01 0 0 0
3996 160 4 0.0000000000000000e+00 -5.6619925223236891e+01 -3.9828741057809538e+01 -8.2443562259395321e+01 0 0 0
3998 160 4 0.0000000000000000e+00 -4.2029663977388317e+01 -4.5089075568365054e+01 -9.2707169455898679e+01 0 0 0
3080 124 4 0.0000000000000000e+00 -3.9002597247808239e+01 -5.2989143990066680e+01 -8.3406979297638941e+01 0 0 0
1662 67 2 0.0000000000000000e+00 -3.4901859116890471e+01 -4.2720617532681871e+01 -8.1557936826361725e+01 0 0 0
4000 160 3 0.0000000000000000e+00 -2.2257715507092833e+01 -4.4145724021871047e+01 -9.4093525904858154e+01 0 0 0
3081 124 4 0.0000000000000000e+00 -2.9348184628052746e+01 -5.1713323920845895e+01 -8.5424781873345836e+01 0 0 0
3999 160 4 0.0000000000000000e+00 -3.2227013141042519e+01 -4.2964640720203036e+01 -9.4437748696066492e+01 0 0 0
1663 67 1 0.0000000000000000e+00 -2.4973417208723390e+01 -4.2230962704270212e+01 -8.3861103057193446e+01 0 0 0
127 6 2 0.0000000000000000e+00 -1.2198980092768015e+02 -3.8252905147307793e+01 -8.2282297656456493e+01 0 0 0
126 6 1 0.0000000000000000e+00 -1.1214973237565920e+02 -3.9303924325697132e+01 -8.3874747931497879e+01 0 0 0
3842 154 4 0.0000000000000000e+00 -1.0845391008794738e+02 -2.6851528055748627e+01 -8.6678638709789453e+01 0 0 0
3843 154 4 0.0000000000000000e+00 -1.0247997173713132e+02 -3.4836557246915085e+01 -8.6647365115829942e+01 0 0 0
586 24 2 0.0000000000000000e+00 -8.4376654760836317e+01 -3.2097437193871841e+01 -9.2521038585343490e+01 0 0 0
587 24 2 0.0000000000000000e+00 -7.5510834151365202e+01 -3.7135176214879216e+01 -9.2858436512069119e+01 0 0 0
588 24 1 0.0000000000000000e+00 -7.3045790182502614e+01 -3.2985848681479006e+01 -8.4112190653742076e+01 0 0 0
578 24 2 0.0000000000000000e+00 -5.2124985608272745e+01 -3.6703226294849046e+01 -9.2215705705960389e+01 0 0 0
3995 160 4 0.0000000000000000e+00 -5.9000111785749588e+01 -3.0139122292122256e+01 -8.1722589068986039e+01 0 0 0
577 24 2 0.0000000000000000e+00 -4.6537794297812752e+01 -2.7972530048257447e+01 -9.1659082299476367e+01 0 0 0
1664 67 2 0.0000000000000000e+00 -2.3256825799745094e+01 -3.2778790581958049e+01 -8.3732134554702370e+01 0 0 0
2721 109 4 0.0000000000000000e+00 -1.1586090934234932e+01 -3.6439257176238215e+01 -8.8164031258997056e+01 0 0 0
1977 80 2 0.0000000000000000e+00 -1.0754348674142652e+02 -1.4157787126061963e+01 -8.3476071092975488e+01 0 0 0
2058 83 2 0.0000000000000000e+00 -1.0097347043552703e+02 -2.2932067850997342e+01 -9.2189530151326110e+01 0 0 0
2701 109 3 0.0000000000000000e+00 -9.2824264667461634e+01 -2.5053818203934075e+01 -8.5984989842313681e+01 0 0 0
2057 83 1 0.0000000000000000e+00 -9.6763374921188017e+01 -1.5226441024477356e+01 -8.7541322949678531e+01 0 0 0
2702 109 4 0.0000000000000000e+00 -8.5036674022395488e+01 -1.8764654758450600e+01 -8.7643527975615740e+01 0 0 0
2165 87 2 0.0000000000000000e+00 -5.5880895907563115e+01 -1.2995318070950900e+01 -9.1796442445269335e+01 0 0 0
2383 96 2 0.0000000000000000e+00 -5.7974126912526124e+01 -2.3231789723199618e+01 -9.3773858251510902e+01 0 0 0
2382 96 1 0.0000000000000000e+00 -5.2793104234150285e+01 -2.0079220910939579e+01 -8.5848979826876828e+01 0 0 0
576 24 1 0.0000000000000000e+00 -4.0233066212857160e+01 -1.9956852108186755e+01 -9.2254097582391225e+01 0 0 0
4881 196 4 0.0000000000000000e+00 -3.4926011696977277e+01 -1.9693152262896110e+01 -8.2227211405475771e+01 0 0 0
1174 47 2 0.0000000000000000e+00 -2.9292953762429875e+01 -1.8766487554403216e+01 -9.2447812480342691e+01 0 0 0
1175 47 1 0.0000000000000000e+00 -2.0974300914771923e+01 -1.4657565949588930e+01 -8.8408328607558332e+01 0 0 0
939 38 2 0.0000000000000000e+00 -8.6784024366503445e+00 -1.5436467147226715e+01 -8.7822070033594514e+01 0 0 0
1976 80 1 0.0000000000000000e+00 -1.1541809466163055e+02 -7.8128589965833308e+00 -8.3348806390768047e+01 0 0 0
2056 83 2 0.0000000000000000e+00 -9.2137500578668934e+01 -8.5367335204549146e+00 -8.0808457337538385e+01 0 0 0
2010 81 2 0.0000000000000000e+00 -8.5671148875555630e+01 7.9910612306995765e-01 -8.9476575114623074e+01 0 0 0
2166 87 2 0.0000000000000000e+00 -6.0828486067900130e+01 -9.3182701736382576e+00 -8.3911042702675502e+01 0 0 0
2015 81 2 0.0000000000000000e+00 -5.8299547007256486e+01 -1.1618288357524180e+00 -9.2194195202138928e+01 0 0 0
2163 87 1 0.0000000000000000e+00 -3.7211811997955344e+01 -8.2713236486227260e+00 -9.4378013082143568e+01 0 0 0
3628 146 4 0.0000000000000000e+00 -4.1065352589839208e+01 -9.6812380687047750e-01 -8.8809377285831161e+01 0 0 0
2162 87 2 0.0000000000000000e+00 -2.7019304945302981e+01 -8.6185316324892192e+00 -9.4218939072170400e+01 0 0 0
4882 196 3 0.0000000000000000e+00 -3.0661476362641309e+01 -1.0450034505967455e+01 -8.4971118197803136e+01 0 0 0
4883 196 4 0.0000000000000000e+00 -2.8313064846408203e+01 -3.5726073920799228e-01 -8.6073198246870220e+01 0 0 0
2376 96 1 0.0000000000000000e+00 -9.3876943136402744e+00 -3.4950576474082204e+00 -8.3153073612797712e+01 0 0 0
938 38 1 0.0000000000000000e+00 -1.2578895948738326e+01 -7.0226281714462395e+00 -9.1872103484558167e+01 0 0 0
937 38 2 0.0000000000000000e+00 -1.6871080714276523e+01 1.6949138344546293e+00 -9.0081928584660233e+01 0 0 0
259 11 2 0.0000000000000000e+00 -9.6950751672894153e+00 -9.5933319421943438e+01 -7.4182503883484031e+01 0 0 0
2394 96 1 0.0000000000000000e+00 -6.9818376963067820e+01 -8.8709584626597959e+01 -7.6808646050750028e+01 0 0 0
2395 96 2 0.0000000000000000e+00 -6.2705711311668864e+01 -8.9941038372422355e+01 -6.9789489806941063e+01 0 0 0
4677 188 4 0.0000000000000000e+00 -2.4509891155650443e+01 -8.7334136459510560e+01 -6.6707684690807284e+01 0 0 0
260 11 2 0.0000000000000000e+00 -1.6799097475854374e+01 -8.9098957627637489e+01 -7.6323518971563331e+01 0 0 0
1160 47 2 0.0000000000000000e+00 -1.1772205234672576e+01 -8.2911796517471672e+01 -6.9027752447699115e+01 0 0 0
3848 154 4 0.0000000000000000e+00 -9.1838032473979666e+01 -7.3027479987291699e+01 -7.6284359789325933e+01 0 0 0
3849 154 4 0.0000000000000000e+00 -8.2871221342350864e+01 -7.7659732956210249e+01 -7.5794867107059517e+01 0 0 0