LAMMPS data file via write_data, version 5 Jun 2019, timestep = 310000000

5000 atoms
4 atom types
5297 bonds
3 bond types
4600 angles
2 angle types

-2.5000000000000000e+02 2.5000000000000000e+02 xlo xhi
-2.5000000000000000e+02 2.5000000000000000e+02 ylo yhi
-2.5000000000000000e+02 2.5000000000000000e+02 zlo zhi

Masses

1 1000
2 1000
3 1000
4 1000

Pair Coeffs # lj/cut

1 0.3 10
2 0.3 10
3 0.3 10
4 0.3 10

Bond Coeffs # harmonic

1 3 10
2 3 10
3 3 11.22

Angle Coeffs # cosine

1 2
2 2

Atoms # full

3063 123 3 0.0000000000000000e+00 -5.1233578981942685e+01 -2.2623976402064770e+01 -1.8360860558610150e+02 0 0 0
3062 123 4 0.0000000000000000e+00 -4.2634676710332130e+01 -1.8147499271675439e+01 -1.8681690937878608e+02 0 0 0
3061 123 4 0.0000000000000000e+00 -3.3770911850869446e+01 -1.4174269447354513e+01 -1.8500053944597957e+02 0 0 0
3060 123 4 0.0000000000000000e+00 -2.6379136463962393e+01 -9.0717897421210711e+00 -1.8084386006211258e+02 0 0 0
275 11 1 0.0000000000000000e+00 -5.0401185517739094e+01 -2.1215478602011650e+01 -1.7247553442285343e+02 0 0 0
3064 123 4 0.0000000000000000e+00 -6.0017351287347687e+01 -2.0521626564879643e+01 -1.7867589798631661e+02 0 0 0
3065 123 4 0.0000000000000000e+00 -6.3194118105665389e+01 -1.9335906984241479e+01 -1.6980842748357057e+02 0 0 0
274 11 2 0.0000000000000000e+00 -5.5698769414362211e+01 -1.3823488900296537e+01 -1.6854078337356080e+02 0 0 0
2242 90 2 0.0000000000000000e+00 -1.6957573230649047e+01 -1.0220433060785336e+01 -1.6992375477675731e+02 0 0 0
3058 123 4 0.0000000000000000e+00 -2.7837487323185933e+01 5.7008523057904847e-01 -1.6624891353672825e+02 0 0 0
3059 123 4 0.0000000000000000e+00 -2.4688713505766543e+01 -7.6920485567296137e-01 -1.7564686117262212e+02 0 0 0
2240 90 2 0.0000000000000000e+00 -1.7935767769100568e+01 2.6612492039892208e+00 -1.6683252087363090e+02 0 0 0
3066 123 4 0.0000000000000000e+00 -6.5045068705271362e+01 -1.6338006666127079e+01 -1.6017926234103180e+02 0 0 0
2244 90 1 0.0000000000000000e+00 -2.7185795545071432e+01 -1.3753383733422567e+01 -1.5479231937395517e+02 0 0 0
2243 90 2 0.0000000000000000e+00 -1.8634647195177529e+01 -1.2751111407732568e+01 -1.6007639297905968e+02 0 0 0
273 11 2 0.0000000000000000e+00 -5.7262320882573128e+01 -7.3228042730262679e+00 -1.6191561264990875e+02 0 0 0
272 11 2 0.0000000000000000e+00 -5.9348493349620824e+01 -4.9821484142114771e+00 -1.5231991083808771e+02 0 0 0
3056 123 4 0.0000000000000000e+00 -4.1545612945289868e+01 1.6299665291078700e+00 -1.5210749289914995e+02 0 0 0
3057 123 3 0.0000000000000000e+00 -3.4739539166348663e+01 -1.4575701970151447e+00 -1.5845270039872460e+02 0 0 0
401 17 1 0.0000000000000000e+00 -2.4600005910569848e+01 3.0697650920436614e+00 -1.5767001271522295e+02 0 0 0
4464 179 4 0.0000000000000000e+00 -1.5123157685622232e+01 -6.2642954701351405e-01 -1.5468396959821172e+02 0 0 0
2241 90 2 0.0000000000000000e+00 -1.1344700894925014e+01 -4.5035574436250787e+00 -1.6407028869996122e+02 0 0 0
4465 179 4 0.0000000000000000e+00 -5.2064825420332612e+00 1.4955769348113996e+00 -1.5720750253093649e+02 0 0 0
1987 80 2 0.0000000000000000e+00 -9.1510106779873780e+01 -2.6955865860378136e+01 -1.3904847945783368e+02 0 0 0
269 11 1 0.0000000000000000e+00 -3.8430235135607141e+01 -2.2066787137396528e+01 -1.4171898149343693e+02 0 0 0
3070 123 4 0.0000000000000000e+00 -8.5293496854288307e+01 -1.4290084210131871e+01 -1.3954684449282405e+02 0 0 0
3069 123 3 0.0000000000000000e+00 -7.4879814436533607e+01 -1.2914363424294878e+01 -1.3832547151873976e+02 0 0 0
3067 123 4 0.0000000000000000e+00 -6.3550139514959298e+01 -1.4944465261507000e+01 -1.5076595194854090e+02 0 0 0
3068 123 4 0.0000000000000000e+00 -6.6091987266713915e+01 -1.5902876147633931e+01 -1.4132418327325769e+02 0 0 0
271 11 2 0.0000000000000000e+00 -5.2673484042621673e+01 -8.0925919902695025e+00 -1.4469734794732847e+02 0 0 0
270 11 2 0.0000000000000000e+00 -4.4995658649490473e+01 -1.4406716223363642e+01 -1.4468080104948356e+02 0 0 0
2245 90 2 0.0000000000000000e+00 -3.4665471555834841e+01 -1.1322675461843524e+01 -1.4903595546119314e+02 0 0 0
4463 179 3 0.0000000000000000e+00 -1.9021884699072420e+01 -7.9154416429321852e+00 -1.4897376874708132e+02 0 0 0
4462 179 4 0.0000000000000000e+00 -1.6315888491871370e+01 -1.5341400433717860e+01 -1.4257874114625906e+02 0 0 0
2065 83 2 0.0000000000000000e+00 -9.0968166434651394e+01 3.4660614585773128e+00 -1.5020007458430987e+02 0 0 0
2066 83 2 0.0000000000000000e+00 -8.1816195548779149e+01 -3.5371553104129150e-01 -1.5074646677846985e+02 0 0 0
2067 83 2 0.0000000000000000e+00 -7.6976029039539497e+01 -4.4638847228841749e+00 -1.4352313883464049e+02 0 0 0
2068 83 2 0.0000000000000000e+00 -6.6839909638276012e+01 -3.5974409209691087e+00 -1.4198800735664392e+02 0 0 0
2069 83 1 0.0000000000000000e+00 -5.8770102092333445e+01 1.5560027868092461e+00 -1.3914770786521174e+02 0 0 0
2247 90 2 0.0000000000000000e+00 -4.7917299463104754e+01 6.1826547951579336e-01 -1.4039878203094636e+02 0 0 0
2246 90 2 0.0000000000000000e+00 -4.0217543197545112e+01 -5.6977788089027195e+00 -1.4208964845665488e+02 0 0 0
1055 43 2 0.0000000000000000e+00 -3.1570738741931347e+01 -9.1310489840929820e-01 -1.3878221488099743e+02 0 0 0
3410 137 4 0.0000000000000000e+00 -2.8295111546858553e+01 4.7127918881306226e+00 -1.4812546927764461e+02 0 0 0
3409 137 4 0.0000000000000000e+00 -1.9938740330191784e+01 2.5239140548091901e+00 -1.4282708459083793e+02 0 0 0
3408 137 4 0.0000000000000000e+00 -1.2073654348157213e+01 -3.3639586278584033e+00 -1.4221683407696352e+02 0 0 0
3407 137 3 0.0000000000000000e+00 -2.2115033043173167e+00 -2.8750529754931615e+00 -1.4494786294412376e+02 0 0 0
1848 74 2 0.0000000000000000e+00 -2.5689832020806296e+01 -6.4185252281507601e+01 -1.2999488641763531e+02 0 0 0
2395 96 2 0.0000000000000000e+00 -1.0209811448071663e+02 -5.3466183612910662e+01 -1.2821486648179814e+02 0 0 0
2394 96 1 0.0000000000000000e+00 -9.3548522368416087e+01 -5.6309900693494669e+01 -1.2332482926159068e+02 0 0 0
1847 74 2 0.0000000000000000e+00 -2.8324789945774054e+01 -5.6353899426353188e+01 -1.3640687828256682e+02 0 0 0
1846 74 2 0.0000000000000000e+00 -3.1766201797905445e+01 -5.2531542467717173e+01 -1.2768271438782196e+02 0 0 0
4776 192 3 0.0000000000000000e+00 -2.0874180114035937e+01 -4.9131497628558364e+01 -1.2574403695331520e+02 0 0 0
4777 192 4 0.0000000000000000e+00 -1.1085670509077463e+01 -4.8796310663970786e+01 -1.2976587406726807e+02 0 0 0
4197 168 4 0.0000000000000000e+00 -6.9546332726096352e+01 -4.6603384185044497e+01 -1.2287378154951050e+02 0 0 0
4198 168 4 0.0000000000000000e+00 -7.2894299461815322e+01 -3.6445838855092205e+01 -1.2306122613550794e+02 0 0 0
1991 80 2 0.0000000000000000e+00 -6.0017100868695657e+01 -3.6845158393759320e+01 -1.2297619827009902e+02 0 0 0
4778 192 4 0.0000000000000000e+00 -4.0048655120038488e+00 -4.3947873958372931e+01 -1.2476557257644336e+02 0 0 0
2702 109 4 0.0000000000000000e+00 -9.7450260421256942e+01 -2.5522610461838010e+01 -1.2304434959047791e+02 0 0 0
1986 80 2 0.0000000000000000e+00 -9.9812978303343925e+01 -2.1495319278111214e+01 -1.3694334306886662e+02 0 0 0
1988 80 1 0.0000000000000000e+00 -8.1996704452224421e+01 -2.6875270560278917e+01 -1.3549133415995365e+02 0 0 0
1989 80 2 0.0000000000000000e+00 -7.2363968911038128e+01 -2.8745707123983916e+01 -1.3642089830014990e+02 0 0 0
4199 168 4 0.0000000000000000e+00 -7.6769982154145055e+01 -2.6495537363896446e+01 -1.2355135715114257e+02 0 0 0
1990 80 2 0.0000000000000000e+00 -6.5250510677661381e+01 -3.1302005068042309e+01 -1.2969720148607587e+02 0 0 0
581 24 2 0.0000000000000000e+00 -5.9387211240483275e+01 -2.1329945111671130e+01 -1.2863004493310601e+02 0 0 0
268 11 2 0.0000000000000000e+00 -4.1986879764882474e+01 -2.9453805174870691e+01 -1.3596118567311797e+02 0 0 0
267 11 2 0.0000000000000000e+00 -3.4715142364789024e+01 -3.2976979906562839e+01 -1.2906037902454131e+02 0 0 0
4455 179 4 0.0000000000000000e+00 -2.5711975852944047e+01 -2.6230874320602108e+01 -1.3269850800302817e+02 0 0 0
4456 179 4 0.0000000000000000e+00 -2.2062112495255441e+01 -3.4257967727229058e+01 -1.2694409247147793e+02 0 0 0
1984 80 2 0.0000000000000000e+00 -1.1328833009992528e+02 -1.0153184172872647e+01 -1.2915222896771269e+02 0 0 0
1985 80 2 0.0000000000000000e+00 -1.0622012522719068e+02 -1.7349554886781593e+01 -1.3142962107092748e+02 0 0 0
3072 123 4 0.0000000000000000e+00 -9.8031841153346207e+01 -1.0648884992049693e+01 -1.2524214199191334e+02 0 0 0
3071 123 4 0.0000000000000000e+00 -9.2821924532283091e+01 -1.4776107505628246e+01 -1.3299053174472803e+02 0 0 0
4200 168 3 0.0000000000000000e+00 -8.1553163261349823e+01 -1.9078846707649561e+01 -1.2763672434574733e+02 0 0 0
582 24 1 0.0000000000000000e+00 -6.9141970281475096e+01 -1.8075048102483343e+01 -1.2865119358487283e+02 0 0 0
3160 127 4 0.0000000000000000e+00 -8.0734567573271477e+01 -7.7945271920160328e+00 -1.2297151584923643e+02 0 0 0
4451 179 3 0.0000000000000000e+00 -5.7573459568079393e+01 -9.1699484365904151e+00 -1.3574403468897631e+02 0 0 0
4452 179 4 0.0000000000000000e+00 -4.7307433151006371e+01 -9.3960629029328295e+00 -1.3529159026722334e+02 0 0 0
4453 179 4 0.0000000000000000e+00 -3.7360518412283021e+01 -1.0192490290190904e+01 -1.3281715807316434e+02 0 0 0
4454 179 4 0.0000000000000000e+00 -3.0821508805626436e+01 -1.7842570536671047e+01 -1.3494059034977025e+02 0 0 0
1056 43 2 0.0000000000000000e+00 -2.6108563964363800e+01 -7.8419113594044099e+00 -1.3571068547563962e+02 0 0 0
4461 179 4 0.0000000000000000e+00 -1.0149966231841290e+01 -1.6250927030649251e+01 -1.3471135370831425e+02 0 0 0
4460 179 4 0.0000000000000000e+00 -5.9414088928866189e+00 -1.8685048204988789e+01 -1.2622508222944136e+02 0 0 0
1983 80 2 0.0000000000000000e+00 -1.1766474453362579e+02 -3.0155389857304700e+00 -1.2399627391962431e+02 0 0 0
3074 123 4 0.0000000000000000e+00 -1.1125887942881424e+02 1.7800798955026582e+00 -1.3159980551830884e+02 0 0 0
1982 80 1 0.0000000000000000e+00 -1.2198882314053104e+02 5.7683373388137733e+00 -1.2485284198601597e+02 0 0 0
3073 123 4 0.0000000000000000e+00 -1.0477228071864867e+02 -3.0563678893560371e+00 -1.2566721135066554e+02 0 0 0
3158 127 4 0.0000000000000000e+00 -9.2251284376764502e+01 2.6779670783739373e+00 -1.3544594899780370e+02 0 0 0
3159 127 4 0.0000000000000000e+00 -8.8026020264874674e+01 -3.3679470113944991e+00 -1.2844931581280707e+02 0 0 0
2166 87 2 0.0000000000000000e+00 -6.1098611317644711e+01 6.0628601036277019e-01 -1.2582997000441127e+02 0 0 0
2165 87 2 0.0000000000000000e+00 -5.1474317665860802e+01 -1.5533878050367818e+00 -1.2367130682698472e+02 0 0 0
2248 90 2 0.0000000000000000e+00 -4.6449900514912571e+01 3.7937220324717345e+00 -1.3098018010326007e+02 0 0 0
1057 43 1 0.0000000000000000e+00 -1.6595047380779160e+01 -7.3644613737342883e+00 -1.3240309322395203e+02 0 0 0
3182 128 3 0.0000000000000000e+00 -1.8229389720155087e+01 1.1150048091429270e+00 -1.2592316040876301e+02 0 0 0
1452 59 2 0.0000000000000000e+00 -5.3138237809329665e+00 2.2651043276671365e+00 -1.3570986547718761e+02 0 0 0
1451 59 1 0.0000000000000000e+00 -2.5085281886045698e+00 -7.0418189505497617e+00 -1.3457831295540072e+02 0 0 0
1058 43 2 0.0000000000000000e+00 -9.5059170285482040e+00 -4.0452932980308205e+00 -1.2677344887406080e+02 0 0 0
2393 96 2 0.0000000000000000e+00 -9.5579563222477589e+01 -6.1722718960038065e+01 -1.1516261745220767e+02 0 0 0
3849 154 4 0.0000000000000000e+00 -8.2712912456728588e+01 -6.1671393855490898e+01 -1.1207597468485261e+02 0 0 0
4155 167 4 0.0000000000000000e+00 -7.2713449988429943e+01 -6.3602688957680577e+01 -1.1200034529811262e+02 0 0 0
4154 167 4 0.0000000000000000e+00 -6.4292491517849243e+01 -6.6543096703754458e+01 -1.1765117051398676e+02 0 0 0
4153 167 4 0.0000000000000000e+00 -5.5202203750470119e+01 -6.5258522840736163e+01 -1.2133101796830778e+02 0 0 0
4152 167 4 0.0000000000000000e+00 -4.5662339780316131e+01 -6.3620603642418068e+01 -1.2014404791110367e+02 0 0 0
2392 96 2 0.0000000000000000e+00 -1.0336384248371503e+02 -5.8598719276573277e+01 -1.0976584226938449e+02 0 0 0
3850 154 3 0.0000000000000000e+00 -8.4403718367053145e+01 -5.3527834484964934e+01 -1.1763530628643470e+02 0 0 0
4196 168 4 0.0000000000000000e+00 -6.9215795423639321e+01 -5.4256704300645751e+01 -1.1603434404248839e+02 0 0 0
4195 168 4 0.0000000000000000e+00 -6.3665146726528413e+01 -5.8265926775784152e+01 -1.0914494823220026e+02 0 0 0
1993 80 2 0.0000000000000000e+00 -5.5690026074475817e+01 -5.5139733075380242e+01 -1.1587210626417239e+02 0 0 0
1994 80 1 0.0000000000000000e+00 -4.8537387789238522e+01 -5.5000465910379134e+01 -1.0896340271737940e+02 0 0 0
4151 167 3 0.0000000000000000e+00 -4.1309419440639218e+01 -5.4693285430989746e+01 -1.1681615365198540e+02 0 0 0
1849 74 2 0.0000000000000000e+00 -2.5563030847075868e+01 -5.8219670484059826e+01 -1.2163391717458578e+02 0 0 0
264 11 2 0.0000000000000000e+00 -2.6389155496538766e+01 -4.9686623764055234e+01 -1.1365657988602737e+02 0 0 0
1850 74 1 0.0000000000000000e+00 -1.5950513537651457e+01 -5.6469058465759893e+01 -1.1914108269257575e+02 0 0 0
1830 74 2 0.0000000000000000e+00 -5.6324898254665099e+00 -4.8123934219933155e+01 -1.1529707287642231e+02 0 0 0
2396 96 2 0.0000000000000000e+00 -1.0239502796101451e+02 -4.4752172790411450e+01 -1.2255730905770461e+02 0 0 0
2397 96 2 0.0000000000000000e+00 -1.0400221364342084e+02 -4.5788978658695356e+01 -1.1278714751368800e+02 0 0 0
3996 160 4 0.0000000000000000e+00 -9.4328784855769570e+01 -4.6307648471449276e+01 -1.1024606718027263e+02 0 0 0
3995 160 4 0.0000000000000000e+00 -8.6661358875462923e+01 -4.0334864687909253e+01 -1.1188747376101962e+02 0 0 0
1992 80 2 0.0000000000000000e+00 -5.6012966666731685e+01 -4.5025478827992117e+01 -1.1881288225932681e+02 0 0 0
1845 74 2 0.0000000000000000e+00 -3.8775107412066255e+01 -4.7554211355956774e+01 -1.2282490949015109e+02 0 0 0
1844 74 1 0.0000000000000000e+00 -3.8519407976370985e+01 -4.4430064109710514e+01 -1.1320310216062180e+02 0 0 0
265 11 2 0.0000000000000000e+00 -2.9350450445272479e+01 -4.1431076647906465e+01 -1.1832933860913785e+02 0 0 0
4457 179 3 0.0000000000000000e+00 -1.5480712138143273e+01 -3.7932779956905307e+01 -1.2033213224698569e+02 0 0 0
1832 74 1 0.0000000000000000e+00 -2.2419714955859096e+01 -4.0695125705188296e+01 -1.1188417328061337e+02 0 0 0
1831 74 2 0.0000000000000000e+00 -1.5617800963373927e+01 -4.7010995393522542e+01 -1.1349630903164265e+02 0 0 0
4458 179 4 0.0000000000000000e+00 -6.3427173947145032e+00 -3.6928514702568442e+01 -1.1708807473919403e+02 0 0 0
2703 109 4 0.0000000000000000e+00 -1.0487915591919430e+02 -2.6194502034621124e+01 -1.1598183259348386e+02 0 0 0
1664 67 2 0.0000000000000000e+00 -6.3602772656911100e+01 -3.3580790668866804e+01 -1.0979690791406085e+02 0 0 0
1665 67 2 0.0000000000000000e+00 -6.4532898439216012e+01 -2.3958638232902754e+01 -1.1002686863777372e+02 0 0 0
580 24 2 0.0000000000000000e+00 -5.4768755129613020e+01 -2.6435788359751619e+01 -1.2111727052987631e+02 0 0 0
579 24 2 0.0000000000000000e+00 -4.8787803861620041e+01 -2.8479378531379684e+01 -1.1245068728293307e+02 0 0 0
266 11 2 0.0000000000000000e+00 -3.6493312727289137e+01 -3.3882885431496369e+01 -1.1965674988820000e+02 0 0 0
1842 74 2 0.0000000000000000e+00 -2.9026038384782318e+01 -3.2464566142228897e+01 -1.1138383672254263e+02 0 0 0
1841 74 2 0.0000000000000000e+00 -2.1923539401385725e+01 -2.5839462308741918e+01 -1.1469257652004229e+02 0 0 0
4459 179 4 0.0000000000000000e+00 -6.7662857563424712e+00 -2.8517680992040816e+01 -1.2235308576498139e+02 0 0 0
2704 109 4 0.0000000000000000e+00 -1.0874505181929032e+02 -1.6558301206784435e+01 -1.1610901046823444e+02 0 0 0
2056 83 2 0.0000000000000000e+00 -9.8195730041354082e+01 -1.0211044590132309e+01 -1.1272003125248548e+02 0 0 0
2701 109 3 0.0000000000000000e+00 -8.8763965358896698e+01 -2.0116857519346905e+01 -1.2121857988662615e+02 0 0 0
2057 83 1 0.0000000000000000e+00 -9.0103577670521588e+01 -9.1290147971861320e+00 -1.1856400594946122e+02 0 0 0
583 24 2 0.0000000000000000e+00 -7.4243138022857963e+01 -1.7378554925552411e+01 -1.1930800261350574e+02 0 0 0
584 24 2 0.0000000000000000e+00 -7.5788707429450554e+01 -1.9129714456306552e+01 -1.0916426427561171e+02 0 0 0
4876 196 3 0.0000000000000000e+00 -4.8399903161143889e+01 -1.4040696961504903e+01 -1.2175807787665244e+02 0 0 0
1669 67 1 0.0000000000000000e+00 -4.4104400608599455e+01 -1.8684532470543903e+01 -1.1232415542993616e+02 0 0 0
4877 196 4 0.0000000000000000e+00 -4.9900373288064721e+01 -8.0577075947088730e+00 -1.1322974525551768e+02 0 0 0
1670 67 2 0.0000000000000000e+00 -3.9168717398126290e+01 -2.0203884580846566e+01 -1.2087880677365536e+02 0 0 0
1671 67 2 0.0000000000000000e+00 -3.8664290127037262e+01 -1.1012201770965685e+01 -1.1730714636304097e+02 0 0 0
3179 128 4 0.0000000000000000e+00 -3.2421037445066304e+01 -1.7581595304675385e+01 -1.0987767061742706e+02 0 0 0
1840 74 2 0.0000000000000000e+00 -1.3635836953446228e+01 -2.1124599295135766e+01 -1.1419055261575328e+02 0 0 0
3180 128 4 0.0000000000000000e+00 -2.4004237330560880e+01 -1.4193027068893143e+01 -1.1391564054356165e+02 0 0 0
4783 192 4 0.0000000000000000e+00 -6.2712315034155566e+00 -9.5228609307521559e+00 -1.1767674576580974e+02 0 0 0
2705 109 4 0.0000000000000000e+00 -1.0958626857596111e+02 -6.7159712734737527e+00 -1.1428348973948469e+02 0 0 0
2706 109 4 0.0000000000000000e+00 -1.0231754874850317e+02 5.0051450539708309e-01 -1.1185347269457088e+02 0 0 0
2058 83 2 0.0000000000000000e+00 -8.5924550686724160e+01 7.2016398988487385e-01 -1.1780839622343207e+02 0 0 0
3161 127 4 0.0000000000000000e+00 -7.6025857242934507e+01 -7.6385929334692264e+00 -1.1337675427913479e+02 0 0 0
2164 87 2 0.0000000000000000e+00 -4.1966931891386196e+01 -2.7993902230887904e+00 -1.2270739636741783e+02 0 0 0
2163 87 1 0.0000000000000000e+00 -3.2193263647719775e+01 -4.1365556800514973e+00 -1.2252936004360072e+02 0 0 0
2162 87 2 0.0000000000000000e+00 -2.8944715308089251e+01 -5.1319052941561569e-02 -1.1324758342605880e+02 0 0 0
3181 128 4 0.0000000000000000e+00 -2.1969582706328044e+01 -6.5528726677537907e+00 -1.2049464562736205e+02 0 0 0
4784 192 4 0.0000000000000000e+00 -1.3145195105757960e+01 -2.8089192526932174e+00 -1.1670988913482731e+02 0 0 0
4785 192 4 0.0000000000000000e+00 -1.9731697538500885e+01 4.5189650534540684e+00 -1.1721509381670994e+02 0 0 0
1059 43 2 0.0000000000000000e+00 -7.1430955901129929e+00 4.3041865300845776e+00 -1.2260834807785999e+02 0 0 0
3848 154 4 0.0000000000000000e+00 -8.9165226535053066e+01 -6.5857886702920766e+01 -1.0600054707271693e+02 0 0 0
3847 154 4 0.0000000000000000e+00 -9.5883440210577334e+01 -6.3971291602240989e+01 -9.8084570031157142e+01 0 0 0
4156 167 4 0.0000000000000000e+00 -7.6984367351972708e+01 -6.3044699374774950e+01 -1.0263879748945703e+02 0 0 0
3081 124 4 0.0000000000000000e+00 -3.4218684452660540e+01 -6.4051434021665926e+01 -9.8553514530129036e+01 0 0 0
262 11 2 0.0000000000000000e+00 -1.7192940333591118e+01 -6.2615643831485052e+01 -1.0216164394503537e+02 0 0 0
261 11 2 0.0000000000000000e+00 -1.9484776131232170e+01 -6.9073793044293524e+01 -9.5299466249111575e+01 0 0 0
2391 96 2 0.0000000000000000e+00 -1.0816944710747744e+02 -5.4026550303082161e+01 -1.0186056924783438e+02 0 0 0
3997 160 4 0.0000000000000000e+00 -9.2586133140873443e+01 -5.5771690024481309e+01 -1.0625501992840979e+02 0 0 0
2400 96 1 0.0000000000000000e+00 -8.5995543269413844e+01 -5.3391927977834875e+01 -9.5956497467976632e+01 0 0 0
3998 160 4 0.0000000000000000e+00 -8.4045745497991589e+01 -5.1671975260154653e+01 -1.0701844585229114e+02 0 0 0
3999 160 4 0.0000000000000000e+00 -7.4076326749791335e+01 -5.1071929887766544e+01 -1.0526749494328236e+02 0 0 0
4194 168 3 0.0000000000000000e+00 -5.6348511924069314e+01 -5.6577438585904432e+01 -1.0254331258695679e+02 0 0 0
4000 160 3 0.0000000000000000e+00 -6.4316911810690144e+01 -4.8477452837746618e+01 -1.0693279629290855e+02 0 0 0
4193 168 4 0.0000000000000000e+00 -5.6164893686306456e+01 -4.9430821983022440e+01 -9.5281215799225848e+01 0 0 0
1995 80 2 0.0000000000000000e+00 -4.3971301557936734e+01 -5.8030763319458437e+01 -1.0082682393032968e+02 0 0 0
3082 124 3 0.0000000000000000e+00 -2.7133772857269520e+01 -5.7382113973793068e+01 -9.6482314055019984e+01 0 0 0
263 11 1 0.0000000000000000e+00 -2.5025220852768058e+01 -5.7652868977204335e+01 -1.0745771533479390e+02 0 0 0
1165 47 2 0.0000000000000000e+00 -1.0522328933335352e+01 -4.9857647450708726e+01 -1.0200619784171272e+02 0 0 0
2153 87 2 0.0000000000000000e+00 3.4863657072697708e-02 -6.0536455146338739e+01 -1.0541006639147466e+02 0 0 0
1164 47 2 0.0000000000000000e+00 -6.4174231301295626e-01 -5.1009328654964087e+01 -9.8992975461619196e+01 0 0 0
2398 96 2 0.0000000000000000e+00 -1.0135233656639217e+02 -4.4609075644786749e+01 -1.0315756540161881e+02 0 0 0
2399 96 2 0.0000000000000000e+00 -9.5038951176239408e+01 -4.7604923461916819e+01 -9.5955980018444080e+01 0 0 0
587 24 2 0.0000000000000000e+00 -8.2516275349486179e+01 -3.9313845924189124e+01 -9.4647199532184217e+01 0 0 0
3994 160 3 0.0000000000000000e+00 -7.9821240068302188e+01 -4.0150998495684441e+01 -1.0416339938301394e+02 0 0 0
3993 160 4 0.0000000000000000e+00 -7.0602938553993511e+01 -3.8717652710196376e+01 -9.9316577437638983e+01 0 0 0
1663 67 1 0.0000000000000000e+00 -5.7133772419902726e+01 -4.0628471534964525e+01 -1.0860928775038465e+02 0 0 0
577 24 2 0.0000000000000000e+00 -5.8084890283397428e+01 -3.7455744269672707e+01 -9.6471512217119269e+01 0 0 0
1662 67 2 0.0000000000000000e+00 -5.0450596252434174e+01 -4.5361885850310138e+01 -1.0285079070860051e+02 0 0 0
1843 74 2 0.0000000000000000e+00 -3.7746759732169494e+01 -3.6062221123022894e+01 -1.0718252159124857e+02 0 0 0
1834 74 2 0.0000000000000000e+00 -3.7960843974801286e+01 -4.5948540628165880e+01 -1.0003466218188862e+02 0 0 0
1835 74 2 0.0000000000000000e+00 -3.8552621514476208e+01 -3.6550387211278924e+01 -9.6215814808751148e+01 0 0 0
1833 74 2 0.0000000000000000e+00 -3.0414040717496651e+01 -4.3497681569260422e+01 -1.0631628233709233e+02 0 0 0
1166 47 2 0.0000000000000000e+00 -1.8498737989391365e+01 -4.6893263020529339e+01 -9.7014168947857570e+01 0 0 0
3300 132 3 0.0000000000000000e+00 -1.3685590463153703e+01 -3.8649786583669517e+01 -1.0050782799463352e+02 0 0 0
1167 47 2 0.0000000000000000e+00 -2.4088457571529442e+01 -3.8143276533673003e+01 -9.6299919860082070e+01 0 0 0
3299 132 4 0.0000000000000000e+00 -4.3891350879835480e+00 -3.4729770577312024e+01 -1.0072183324512081e+02 0 0 0
4750 190 3 0.0000000000000000e+00 -1.2470883483680591e+02 -2.1535511500980519e+01 -1.0350136611303107e+02 0 0 0
3175 127 3 0.0000000000000000e+00 -1.1614140932321527e+02 -3.1138359960878109e+01 -9.9976459857775325e+01 0 0 0
3174 127 4 0.0000000000000000e+00 -1.1175698345286349e+02 -2.2041599210532151e+01 -1.0270508601284345e+02 0 0 0
3171 127 4 0.0000000000000000e+00 -9.7626039481013152e+01 -3.2877515332824217e+01 -1.0119706796359560e+02 0 0 0
2385 96 2 0.0000000000000000e+00 -9.8867078245477344e+01 -2.3324217807834422e+01 -9.6499013643289317e+01 0 0 0
3172 127 4 0.0000000000000000e+00 -9.3978820825346986e+01 -2.6867226883484921e+01 -1.0800631437314365e+02 0 0 0
2384 96 2 0.0000000000000000e+00 -8.9220534867821598e+01 -2.4434549837372362e+01 -9.8696172939501906e+01 0 0 0
2383 96 2 0.0000000000000000e+00 -8.2363719462163971e+01 -2.8903186414071385e+01 -1.0489900350456919e+02 0 0 0
2382 96 1 0.0000000000000000e+00 -7.2927692263896276e+01 -3.1420136077526809e+01 -1.0681308281197994e+02 0 0 0
585 24 2 0.0000000000000000e+00 -7.6371992287620003e+01 -2.1587742742913115e+01 -9.9429484526013269e+01 0 0 0
586 24 2 0.0000000000000000e+00 -7.8861368055186816e+01 -3.0309690024370212e+01 -9.5283513703274679e+01 0 0 0
2381 96 2 0.0000000000000000e+00 -6.6107125153538760e+01 -2.8159793888344968e+01 -1.0037116057225577e+02 0 0 0
2380 96 2 0.0000000000000000e+00 -5.7761740047080153e+01 -2.2198313338599640e+01 -9.8915772880571865e+01 0 0 0
578 24 2 0.0000000000000000e+00 -5.3891121048171570e+01 -3.1626321424372186e+01 -1.0419326079374531e+02 0 0 0
3177 128 4 0.0000000000000000e+00 -4.2326265986535844e+01 -2.6285621606776679e+01 -9.5551275981927986e+01 0 0 0
3178 128 4 0.0000000000000000e+00 -3.8732493004488319e+01 -2.2616882178899402e+01 -1.0389553367338782e+02 0 0 0
1836 74 2 0.0000000000000000e+00 -3.2025049849501002e+01 -2.9427591950227914e+01 -9.9087143788808874e+01 0 0 0
1837 74 2 0.0000000000000000e+00 -2.2096524779141408e+01 -2.8628442274293430e+01 -1.0190877965257806e+02 0 0 0
1838 74 1 0.0000000000000000e+00 -1.3547310409314756e+01 -2.9148871107069791e+01 -1.0743425062054922e+02 0 0 0
1839 74 2 0.0000000000000000e+00 -6.2839384579306179e+00 -2.2489436477759551e+01 -1.0748076766249436e+02 0 0 0
1976 80 1 0.0000000000000000e+00 -1.2179094438078431e+02 -1.1070510144722279e+01 -1.0016465120891280e+02 0 0 0
3173 127 4 0.0000000000000000e+00 -1.0180833704970708e+02 -2.0943403275832637e+01 -1.0525612564007395e+02 0 0 0
2054 83 2 0.0000000000000000e+00 -1.0380558473125562e+02 -1.3551921199018873e+01 -9.7058880483874361e+01 0 0 0
2055 83 2 0.0000000000000000e+00 -1.0599068496458129e+02 -1.2330376473560891e+01 -1.0673449211255560e+02 0 0 0
3163 127 3 0.0000000000000000e+00 -7.0314014933075271e+01 -1.0827490359419341e+01 -9.5295473181089747e+01 0 0 0
1666 67 2 0.0000000000000000e+00 -6.5171927705922613e+01 -1.5402894255518845e+01 -1.0431099991278717e+02 0 0 0
1667 67 2 0.0000000000000000e+00 -5.7811521480172807e+01 -8.8079227748860198e+00 -1.0394865965939213e+02 0 0 0
1668 67 2 0.0000000000000000e+00 -5.2798725978246473e+01 -1.6856724382063899e+01 -1.0697260366380385e+02 0 0 0
1672 67 2 0.0000000000000000e+00 -3.9159724658664082e+01 -8.0516688985943095e+00 -1.0762757567972068e+02 0 0 0
4176 168 3 0.0000000000000000e+00 -3.6375340804847689e+01 -1.3114041628091675e+01 -9.7455093152972594e+01 0 0 0
1170 47 2 0.0000000000000000e+00 -1.8934956990931429e+01 -1.7374484907571830e+01 -9.7766079856206332e+01 0 0 0
1171 47 2 0.0000000000000000e+00 -1.5645503908471122e+01 -8.4591580109100430e+00 -1.0052619620708634e+02 0 0 0
2158 87 2 0.0000000000000000e+00 7.1209339179693332e-01 -1.5626688246305841e+01 -1.0012595610606157e+02 0 0 0
1977 80 2 0.0000000000000000e+00 -1.2377941499005820e+02 -3.6470997417157545e+00 -1.0676006187859875e+02 0 0 0
701 29 1 0.0000000000000000e+00 -1.1358224164710140e+02 -2.7171203281778653e+00 -1.0073859394348379e+02 0 0 0
4746 190 4 0.0000000000000000e+00 -1.2326048348799671e+02 3.5599796384671318e+00 -9.6741848842013624e+01 0 0 0
2707 109 3 0.0000000000000000e+00 -1.0510178066268168e+02 1.8116799566247226e+00 -1.0204260129335776e+02 0 0 0
1423 57 2 0.0000000000000000e+00 -9.3342293386132937e+01 2.8502366611504417e+00 -1.0762349534587324e+02 0 0 0
1422 57 2 0.0000000000000000e+00 -8.8071382182507392e+01 -6.3611981443026018e+00 -1.0828232458200546e+02 0 0 0
1421 57 2 0.0000000000000000e+00 -8.3337603359636404e+01 -4.6360901002906724e-01 -1.0106068815041479e+02 0 0 0
2708 109 4 0.0000000000000000e+00 -9.6291894377245171e+01 9.3853723909192233e-01 -9.6372106185930164e+01 0 0 0
3162 127 4 0.0000000000000000e+00 -7.5766546959066858e+01 -7.5194910845967868e+00 -1.0316864873849633e+02 0 0 0
2074 83 2 0.0000000000000000e+00 -7.3500454346553184e+01 3.6466206470887927e+00 -1.0383357163585059e+02 0 0 0
2075 83 1 0.0000000000000000e+00 -7.2540284135231275e+01 -3.8033519232949570e-01 -9.4635303556629992e+01 0 0 0
2377 96 2 0.0000000000000000e+00 -6.3627673610596041e+01 6.5982972979980681e-01 -9.8407849090837786e+01 0 0 0
4878 196 4 0.0000000000000000e+00 -5.0199670710918951e+01 -7.6837017955201803e-01 -1.0587893837401784e+02 0 0 0
4879 196 4 0.0000000000000000e+00 -4.3943326676737996e+01 2.2239181637614975e+00 -9.8137134461937279e+01 0 0 0
1674 67 2 0.0000000000000000e+00 -2.7599068073374124e+01 1.3480136797916789e+00 -9.5923262121715695e+01 0 0 0
1673 67 2 0.0000000000000000e+00 -3.5454148773882750e+01 -1.0261967003798038e+00 -1.0186070641071871e+02 0 0 0
2161 87 2 0.0000000000000000e+00 -2.1221382634886819e+01 1.8460566838715660e+00 -1.0773078815914130e+02 0 0 0
2159 87 2 0.0000000000000000e+00 -4.6809827165182316e+00 -7.1974607893772449e+00 -1.0295920772007597e+02 0 0 0
2160 87 2 0.0000000000000000e+00 -1.2283094773510358e+01 6.3636015814080904e-02 -1.0354375685188037e+02 0 0 0
1172 47 2 0.0000000000000000e+00 -9.3321474821177617e+00 -2.5848528711696233e+00 -9.4766610758807587e+01 0 0 0
259 11 2 0.0000000000000000e+00 -1.7350288851921910e+01 -8.3810562775553734e+01 -8.5349477454310829e+01 0 0 0
260 11 2 0.0000000000000000e+00 -1.4580115268137238e+01 -7.7187152949690145e+01 -9.2430140868549032e+01 0 0 0
3979 160 4 0.0000000000000000e+00 -4.1460253093404651e+00 -8.0683411336669849e+01 -8.1263829585148244e+01 0 0 0
4158 167 4 0.0000000000000000e+00 -8.7921620714082110e+01 -6.2591312936703943e+01 -8.5252115557890548e+01 0 0 0
4157 167 3 0.0000000000000000e+00 -8.0555072218225433e+01 -6.2581082584507065e+01 -9.2623045330570633e+01 0 0 0
3080 124 4 0.0000000000000000e+00 -4.1322263163293123e+01 -6.7047177265421212e+01 -9.2376687499707899e+01 0 0 0
3079 124 4 0.0000000000000000e+00 -4.6650333060396655e+01 -6.5103659078708404e+01 -8.3462223551392384e+01 0 0 0
1159 47 2 0.0000000000000000e+00 -3.1260821481839475e+01 -6.7494831953045392e+01 -8.7431481090081618e+01 0 0 0
1160 47 2 0.0000000000000000e+00 -2.3041023846381282e+01 -6.6187378821244195e+01 -8.0949884492978498e+01 0 0 0
1162 47 2 0.0000000000000000e+00 -9.0423826948195654e+00 -6.3568912962111263e+01 -8.5388298051010565e+01 0 0 0
2390 96 2 0.0000000000000000e+00 -1.1273259890385670e+02 -4.8901797565623106e+01 -9.4480476114922524e+01 0 0 0
3845 154 4 0.0000000000000000e+00 -9.8977588925383102e+01 -5.0780892508552377e+01 -8.3881662779466822e+01 0 0 0
3846 154 4 0.0000000000000000e+00 -9.6781032447853022e+01 -5.7561762208831588e+01 -9.0713996502143630e+01 0 0 0
1997 80 2 0.0000000000000000e+00 -5.2677096083334561e+01 -5.4551459667647670e+01 -8.1892698398207472e+01 0 0 0
1996 80 2 0.0000000000000000e+00 -4.8545388586878154e+01 -5.7207248804972849e+01 -9.1348529286238758e+01 0 0 0
1158 47 2 0.0000000000000000e+00 -3.4051914541586257e+01 -5.7988352103092517e+01 -8.5131947290657877e+01 0 0 0