LAMMPS data file via write_data, version 5 Jun 2019, timestep = 390000000

5000 atoms
4 atom types
5296 bonds
3 bond types
4600 angles
2 angle types

-2.5000000000000000e+02 2.5000000000000000e+02 xlo xhi
-2.5000000000000000e+02 2.5000000000000000e+02 ylo yhi
-2.5000000000000000e+02 2.5000000000000000e+02 zlo zhi

Masses

1 1000
2 1000
3 1000
4 1000

Pair Coeffs # lj/cut

1 0.3 10
2 0.3 10
3 0.3 10
4 0.3 10

Bond Coeffs # harmonic

1 3 10
2 3 10
3 3 11.22

Angle Coeffs # cosine

1 2
2 2

Atoms # full

3062 123 4 0.0000000000000000e+00 -4.9647288867623693e+01 -1.0907563958334023e+01 -1.6685484191841093e+02 0 0 0
3061 123 4 0.0000000000000000e+00 -5.1906951386159967e+01 -1.2116327467722601e+00 -1.6626994071863905e+02 0 0 0
3060 123 4 0.0000000000000000e+00 -4.7706217907703049e+01 6.7828437102851833e+00 -1.7033597819846560e+02 0 0 0
4464 179 4 0.0000000000000000e+00 -2.6401215259374169e+01 6.6145173899750134e+00 -1.7353823835505409e+02 0 0 0
4463 179 3 0.0000000000000000e+00 -1.6796876409137784e+01 3.7783513348208362e+00 -1.7047454391368007e+02 0 0 0
4778 192 4 0.0000000000000000e+00 -7.9373476267333398e+00 -4.9361373054639643e+01 -1.5290948852183917e+02 0 0 0
273 11 2 0.0000000000000000e+00 -3.8815019773898342e+01 -3.3463537085442560e+01 -1.5019438785435935e+02 0 0 0
4780 192 4 0.0000000000000000e+00 -2.2174161351948003e+00 -3.8525564619079482e+01 -1.5140233660902246e+02 0 0 0
4478 180 4 0.0000000000000000e+00 -7.4611626111437374e+01 -1.8898850174045585e+01 -1.5557071492806156e+02 0 0 0
3064 123 4 0.0000000000000000e+00 -5.6174192479441423e+01 -1.8607468598771177e+01 -1.5151994763484976e+02 0 0 0
274 11 2 0.0000000000000000e+00 -4.7089650540645046e+01 -2.9453753843330052e+01 -1.5293290155820446e+02 0 0 0
275 11 1 0.0000000000000000e+00 -5.6085117550766206e+01 -2.6691503362649861e+01 -1.5660658822522626e+02 0 0 0
4477 180 4 0.0000000000000000e+00 -8.0748606173257130e+01 -1.1875647990239857e+01 -1.5868561655654730e+02 0 0 0
3063 123 3 0.0000000000000000e+00 -5.0940184371238580e+01 -1.7927753465770454e+01 -1.5997772222486918e+02 0 0 0
1848 74 2 0.0000000000000000e+00 -4.6457746699568531e+01 -7.9816705869895115e+00 -1.5051483755932853e+02 0 0 0
2246 90 2 0.0000000000000000e+00 -3.2772079035903801e+01 -6.2386108993340432e+00 -1.5261333560928387e+02 0 0 0
2247 90 2 0.0000000000000000e+00 -3.4080477599867571e+01 -1.5660912778895110e+01 -1.5059780775489398e+02 0 0 0
4461 179 4 0.0000000000000000e+00 -1.9826688011761771e+01 -8.0271089420173016e+00 -1.5497870655295600e+02 0 0 0
4476 180 3 0.0000000000000000e+00 -8.6763368804868989e+01 -4.2452209502291405e+00 -1.5664041267313337e+02 0 0 0
2063 83 1 0.0000000000000000e+00 -8.4929662846577713e+01 6.6393296806344679e+00 -1.5596957646939595e+02 0 0 0
2064 83 2 0.0000000000000000e+00 -7.8526796683348380e+01 -8.5477363066822776e-01 -1.5348776900506505e+02 0 0 0
1849 74 2 0.0000000000000000e+00 -4.7147979749794118e+01 -8.2691719761353466e-01 -1.5745970280957334e+02 0 0 0
1850 74 1 0.0000000000000000e+00 -5.5229018776984262e+01 3.1897184466828854e+00 -1.5358051845873521e+02 0 0 0
4462 179 4 0.0000000000000000e+00 -1.7654491201958866e+01 -3.4859614447339644e+00 -1.6372559114243586e+02 0 0 0
2244 90 1 0.0000000000000000e+00 -2.0461577916817472e+01 6.5960998363648233e+00 -1.5994923516057938e+02 0 0 0
2245 90 2 0.0000000000000000e+00 -2.7347537311964103e+01 -2.0575484974053029e-01 -1.5920730596818396e+02 0 0 0
1452 59 2 0.0000000000000000e+00 -8.5378024939191963e+00 -4.4894308016301103e+00 -1.5034370574921132e+02 0 0 0
1453 59 2 0.0000000000000000e+00 -4.5153188716865538e+00 3.1380801358542665e+00 -1.5525122692512190e+02 0 0 0
2392 96 2 0.0000000000000000e+00 -7.2035601816709303e+01 -6.3144677992921885e+01 -1.3631864729714420e+02 0 0 0
2390 96 2 0.0000000000000000e+00 -5.3048413765868233e+01 -6.3046460904266418e+01 -1.3862610148629790e+02 0 0 0
2250 90 1 0.0000000000000000e+00 -3.6825180308810097e+01 -3.8442582867626427e+01 -1.3687441058691974e+02 0 0 0
272 11 2 0.0000000000000000e+00 -2.8736783184784077e+01 -3.5802130516857815e+01 -1.4811358011826749e+02 0 0 0
271 11 2 0.0000000000000000e+00 -1.9915885067292706e+01 -3.4234407341243895e+01 -1.4326791754206812e+02 0 0 0
3626 146 3 0.0000000000000000e+00 -2.5904453038555069e+01 -4.1471121069716034e+01 -1.3765826149316254e+02 0 0 0
4777 192 4 0.0000000000000000e+00 -9.6894936888111349e+00 -4.3369771873252226e+01 -1.4483095548707914e+02 0 0 0
4776 192 3 0.0000000000000000e+00 -1.2215975202543483e+01 -4.5308984248693278e+01 -1.3592065921427164e+02 0 0 0
270 11 2 0.0000000000000000e+00 -1.0920423911708546e+01 -3.3629070291795522e+01 -1.3996556084384716e+02 0 0 0
4480 180 4 0.0000000000000000e+00 -6.8693156600975229e+01 -1.8920733202568048e+01 -1.3731640867475954e+02 0 0 0
4479 180 4 0.0000000000000000e+00 -6.9243601105094328e+01 -2.0033778235824304e+01 -1.4760752317128978e+02 0 0 0
3065 123 4 0.0000000000000000e+00 -5.9009020266576698e+01 -1.9115634345340883e+01 -1.4202175712931066e+02 0 0 0
1846 74 2 0.0000000000000000e+00 -4.7836174930857098e+01 -2.1925766723400109e+01 -1.3821755148115375e+02 0 0 0
2249 90 2 0.0000000000000000e+00 -3.8355467946920704e+01 -2.8574990442937402e+01 -1.3795744886457311e+02 0 0 0
2248 90 2 0.0000000000000000e+00 -3.9783759689364906e+01 -2.2647322570593655e+01 -1.4587189424683481e+02 0 0 0
4781 192 4 0.0000000000000000e+00 -2.7799025325769109e+00 -3.0900401880110788e+01 -1.4495468303246071e+02 0 0 0
4782 192 3 0.0000000000000000e+00 -2.4895754857267729e+00 -2.1071020403340182e+01 -1.4223626491510677e+02 0 0 0
2066 83 2 0.0000000000000000e+00 -7.9606299214674834e+01 -1.0368275987907337e+01 -1.3693539048984559e+02 0 0 0
1847 74 2 0.0000000000000000e+00 -4.4103521009738060e+01 -1.3437511637853268e+01 -1.4209609258666978e+02 0 0 0
3412 137 4 0.0000000000000000e+00 -5.6652905541334505e+01 -5.3116022140860162e+00 -1.4221392534204500e+02 0 0 0
1054 43 2 0.0000000000000000e+00 -2.9785119564335531e+01 -1.2883335542705964e+01 -1.4071964812546679e+02 0 0 0
4459 179 4 0.0000000000000000e+00 -2.1405211113669765e+01 -1.8300763466566725e+01 -1.4225171947230996e+02 0 0 0
1055 43 2 0.0000000000000000e+00 -2.3354263056723983e+01 -5.2639763351164230e+00 -1.4326916313106932e+02 0 0 0
4460 179 4 0.0000000000000000e+00 -1.5092628855326334e+01 -1.1871714655487272e+01 -1.4660036212066780e+02 0 0 0
2065 83 2 0.0000000000000000e+00 -7.7647440469561275e+01 -2.4347050273283313e+00 -1.4361336641301827e+02 0 0 0
2676 108 3 0.0000000000000000e+00 -5.9367310111444738e+01 5.3226269444212360e+00 -1.4406087432324594e+02 0 0 0
3413 137 3 0.0000000000000000e+00 -6.5789336845997838e+01 -4.5435061590747949e+00 -1.3755935011406280e+02 0 0 0
2019 81 1 0.0000000000000000e+00 -6.8614396056259750e+01 6.1792029067354761e+00 -1.3979351957688704e+02 0 0 0
3411 137 4 0.0000000000000000e+00 -4.8843040384992726e+01 1.3598542460906242e+00 -1.4143185789310255e+02 0 0 0
3410 137 4 0.0000000000000000e+00 -3.9428435555134399e+01 4.2813071822384723e+00 -1.4480154326549291e+02 0 0 0
3409 137 4 0.0000000000000000e+00 -3.0514280973780608e+01 5.4810264236462887e+00 -1.4873250274952429e+02 0 0 0
3408 137 4 0.0000000000000000e+00 -2.0799355619083844e+01 4.8026572780808854e+00 -1.4599524942058596e+02 0 0 0
1056 43 2 0.0000000000000000e+00 -1.8748728562793833e+01 7.9046063117480025e-01 -1.3655792989771101e+02 0 0 0
3407 137 3 0.0000000000000000e+00 -1.1128503386142821e+01 4.8328408469453992e+00 -1.4931849410368727e+02 0 0 0
1451 59 1 0.0000000000000000e+00 -7.5012899298091993e+00 -2.0443048838054207e+00 -1.4061151564861481e+02 0 0 0
408 17 2 0.0000000000000000e+00 -1.1077289098221387e+01 7.4629275156763040e+00 -1.3757194486541349e+02 0 0 0
3406 137 4 0.0000000000000000e+00 -1.8463297890682224e+00 6.0833687078844996e+00 -1.4541560589589770e+02 0 0 0
1994 80 1 0.0000000000000000e+00 -5.8188210541378510e+01 -7.7991360490634136e+01 -1.2158722170120809e+02 0 0 0
2393 96 2 0.0000000000000000e+00 -7.7077448277571960e+01 -6.1943208293337015e+01 -1.2793875757037020e+02 0 0 0
2391 96 2 0.0000000000000000e+00 -6.2351247580616914e+01 -6.5523300978870353e+01 -1.3569795554080423e+02 0 0 0
1995 80 2 0.0000000000000000e+00 -5.5839994298469470e+01 -6.8538887610576012e+01 -1.2197337094911667e+02 0 0 0
4154 167 4 0.0000000000000000e+00 -3.6683804261980335e+01 -6.1274449133345769e+01 -1.2383046559892649e+02 0 0 0
3174 127 4 0.0000000000000000e+00 -6.1454256996731004e+01 -5.9218008933593680e+01 -1.2761341160055690e+02 0 0 0
3175 127 3 0.0000000000000000e+00 -6.2674278002094276e+01 -5.0129610485835926e+01 -1.3191407807289221e+02 0 0 0
2388 96 1 0.0000000000000000e+00 -5.5162965128616719e+01 -4.9668190863528700e+01 -1.2430811988254857e+02 0 0 0
2389 96 2 0.0000000000000000e+00 -5.4023822780524540e+01 -5.4448183228317951e+01 -1.3349983189476515e+02 0 0 0
4153 167 4 0.0000000000000000e+00 -3.9369459222935831e+01 -5.5898424648553942e+01 -1.3160728252251357e+02 0 0 0
4152 167 4 0.0000000000000000e+00 -3.9413128702005864e+01 -4.6072577214199697e+01 -1.2900978249274954e+02 0 0 0
4452 179 4 0.0000000000000000e+00 -5.0619390167363079e+01 -3.5023619691564917e+01 -1.2389040394564407e+02 0 0 0
4151 167 3 0.0000000000000000e+00 -3.1831193423811783e+01 -4.0260112145414944e+01 -1.2750967909509313e+02 0 0 0
1844 74 1 0.0000000000000000e+00 -3.9970591932015843e+01 -3.2578278934332658e+01 -1.2819206502387573e+02 0 0 0
1842 74 2 0.0000000000000000e+00 -2.3008016817050006e+01 -3.5003282896312406e+01 -1.2185276364856018e+02 0 0 0
269 11 1 0.0000000000000000e+00 -5.5533702004913810e+00 -3.7641003521430164e+01 -1.3215328354520790e+02 0 0 0
268 11 2 0.0000000000000000e+00 -8.9622751086495658e+00 -4.2772938650241912e+01 -1.2345605351638685e+02 0 0 0
3067 123 4 0.0000000000000000e+00 -6.4082938498968602e+01 -3.1886906593120653e+01 -1.2623684369825078e+02 0 0 0
2068 83 2 0.0000000000000000e+00 -6.8060961525507736e+01 -2.1150649253246122e+01 -1.2667248901610397e+02 0 0 0
3066 123 4 0.0000000000000000e+00 -6.0758606412903625e+01 -2.4269915953982135e+01 -1.3315285561520446e+02 0 0 0
1845 74 2 0.0000000000000000e+00 -4.7766640193291799e+01 -3.0402093298719013e+01 -1.3328645592489246e+02 0 0 0
3628 146 4 0.0000000000000000e+00 -3.1145137040160218e+01 -2.4303951273574295e+01 -1.2880858037282704e+02 0 0 0
3627 146 4 0.0000000000000000e+00 -2.8110769016251705e+01 -3.1653639924224851e+01 -1.3503470289169942e+02 0 0 0
4458 179 4 0.0000000000000000e+00 -2.1520662923544492e+01 -2.4519730886565348e+01 -1.3362076960643185e+02 0 0 0
4457 179 3 0.0000000000000000e+00 -2.0958421186793764e+01 -2.2619814009970234e+01 -1.2347337072301812e+02 0 0 0
1831 74 2 0.0000000000000000e+00 -1.1075048431563232e+01 -2.5661027017931033e+01 -1.2340974897607164e+02 0 0 0
4783 192 4 0.0000000000000000e+00 -8.6282888213625011e+00 -1.8460267675388796e+01 -1.3484387768400632e+02 0 0 0
1830 74 2 0.0000000000000000e+00 -2.3452005405085075e+00 -2.5675790995660918e+01 -1.2955790481025463e+02 0 0 0
2067 83 2 0.0000000000000000e+00 -7.6471548016053532e+01 -1.6687175614265495e+01 -1.2943482140996471e+02 0 0 0
2701 109 3 0.0000000000000000e+00 -7.0477218421763695e+01 -8.5467040489966379e+00 -1.2478074897214162e+02 0 0 0
4481 180 4 0.0000000000000000e+00 -6.1658996638509642e+01 -1.3977699705064508e+01 -1.3290691817745068e+02 0 0 0
4482 180 3 0.0000000000000000e+00 -5.7626684630411525e+01 -7.4199841262263959e+00 -1.2604793834835894e+02 0 0 0
1052 43 2 0.0000000000000000e+00 -4.4029091407747920e+01 -1.4225813751025685e+01 -1.2811420450098930e+02 0 0 0
1053 43 2 0.0000000000000000e+00 -3.5950620508743057e+01 -1.6595232638289843e+01 -1.3337892288915933e+02 0 0 0
3629 146 4 0.0000000000000000e+00 -3.4802470293072332e+01 -1.7860946999301653e+01 -1.2209781669627436e+02 0 0 0
3180 128 4 0.0000000000000000e+00 -2.9023262393667185e+01 -8.8729514307058537e+00 -1.3173079858384477e+02 0 0 0
3179 128 4 0.0000000000000000e+00 -2.5096602750095077e+01 -1.3273452718237722e+01 -1.2347734430176511e+02 0 0 0
4785 192 4 0.0000000000000000e+00 -1.5195315077478805e+01 -4.7623420934158727e+00 -1.2514300368152503e+02 0 0 0
4784 192 4 0.0000000000000000e+00 -1.5593759890010022e+01 -1.2241903841030743e+01 -1.3150200937269909e+02 0 0 0
2059 83 2 0.0000000000000000e+00 -8.8110492836503582e+01 -3.8216735905972005e-01 -1.2923950218948238e+02 0 0 0
2060 83 2 0.0000000000000000e+00 -8.7837078649926951e+01 8.7283279556769617e+00 -1.3131077727145757e+02 0 0 0
2058 83 2 0.0000000000000000e+00 -8.0655785291513411e+01 -4.4508191970357602e+00 -1.2405199046932456e+02 0 0 0
3414 137 4 0.0000000000000000e+00 -7.2446758718320993e+01 -2.6001017339344523e-01 -1.3145009707326722e+02 0 0 0
3415 137 4 0.0000000000000000e+00 -7.7801039012033513e+01 7.4493365492476675e+00 -1.2764865299953023e+02 0 0 0
2018 81 2 0.0000000000000000e+00 -6.1283993041119686e+01 7.4105461104871253e+00 -1.3322069057591730e+02 0 0 0
4483 180 4 0.0000000000000000e+00 -5.2200069499142707e+01 1.0474087327790206e-02 -1.2248371365607319e+02 0 0 0
4484 180 4 0.0000000000000000e+00 -4.4559076653861723e+01 6.7113028156818579e+00 -1.2207200166939954e+02 0 0 0
2997 120 4 0.0000000000000000e+00 -4.0624727300322675e+01 4.9576314400568497e+00 -1.3359964718919201e+02 0 0 0
2996 120 4 0.0000000000000000e+00 -3.7138504647697197e+01 -4.5553494853842530e-01 -1.2590336428890576e+02 0 0 0
3181 128 4 0.0000000000000000e+00 -2.9163453182555337e+01 1.4560862471722842e+00 -1.3374314418800921e+02 0 0 0
1057 43 1 0.0000000000000000e+00 -1.8779357171370151e+01 8.1028668427067494e+00 -1.2925181756887881e+02 0 0 0
409 17 2 0.0000000000000000e+00 -7.0277743569811149e+00 1.5532788516648710e+00 -1.3016411546555213e+02 0 0 0
1992 80 2 0.0000000000000000e+00 -6.8803245994217789e+01 -8.6781182485735542e+01 -1.1120583441100366e+02 0 0 0
1993 80 2 0.0000000000000000e+00 -6.1850909658257841e+01 -8.7046552273891223e+01 -1.1905882581455609e+02 0 0 0
4195 168 4 0.0000000000000000e+00 -7.2521695429892901e+01 -8.1036186683261334e+01 -1.1864145764344126e+02 0 0 0
4196 168 4 0.0000000000000000e+00 -8.1489321246792542e+01 -7.6712101222748387e+01 -1.1952928435642160e+02 0 0 0
4194 168 3 0.0000000000000000e+00 -6.4924566981792452e+01 -7.7975535814390867e+01 -1.1274470762448163e+02 0 0 0
4197 168 4 0.0000000000000000e+00 -9.0928339404324163e+01 -7.2224541478797860e+01 -1.1801630482028092e+02 0 0 0
4198 168 4 0.0000000000000000e+00 -9.7400611773948015e+01 -6.4741187640701170e+01 -1.1632753641150265e+02 0 0 0
3850 154 3 0.0000000000000000e+00 -8.3137102522167424e+01 -6.5388926814542046e+01 -1.1171986087681699e+02 0 0 0
3173 127 4 0.0000000000000000e+00 -6.4637618149232267e+01 -6.3453042954776357e+01 -1.1942998751043535e+02 0 0 0
3172 127 4 0.0000000000000000e+00 -6.3616644420914163e+01 -6.5278630586454710e+01 -1.0934084064798733e+02 0 0 0
1996 80 2 0.0000000000000000e+00 -5.5740941204822256e+01 -6.0463541570698062e+01 -1.1571467975953897e+02 0 0 0
4155 167 4 0.0000000000000000e+00 -3.4361916813691806e+01 -6.6064726197392631e+01 -1.1541391653901611e+02 0 0 0
4156 167 4 0.0000000000000000e+00 -3.9033264547987322e+01 -6.9845692926371967e+01 -1.0762086780717709e+02 0 0 0
1985 80 2 0.0000000000000000e+00 -1.1875017611654101e+02 -5.0098625508096866e+01 -1.0730247874104055e+02 0 0 0
2394 96 1 0.0000000000000000e+00 -7.6850287077217686e+01 -5.8585909268683501e+01 -1.1826805666709021e+02 0 0 0
2395 96 2 0.0000000000000000e+00 -7.3682916560777045e+01 -5.7670747437159093e+01 -1.0866419050681314e+02 0 0 0
583 24 2 0.0000000000000000e+00 -7.0060511801650094e+01 -4.8882027940978716e+01 -1.1746693221303430e+02 0 0 0
2387 96 2 0.0000000000000000e+00 -5.8867148333101177e+01 -4.7637813152295351e+01 -1.1474194935994994e+02 0 0 0
584 24 2 0.0000000000000000e+00 -7.0396643982660677e+01 -4.6983391777696724e+01 -1.0754206156669002e+02 0 0 0
1997 80 2 0.0000000000000000e+00 -5.2989239837778584e+01 -5.4372908523872816e+01 -1.0837560155137284e+02 0 0 0
266 11 2 0.0000000000000000e+00 -2.3520892765206231e+01 -5.3249054329951448e+01 -1.1943148060445104e+02 0 0 0
265 11 2 0.0000000000000000e+00 -2.8067941427063438e+01 -5.7602967046585697e+01 -1.1109676249158366e+02 0 0 0
267 11 2 0.0000000000000000e+00 -1.5887923187643530e+01 -4.7174101960463808e+01 -1.1824662972237657e+02 0 0 0
3072 123 4 0.0000000000000000e+00 -9.5297099983498427e+01 -3.5517458145124209e+01 -1.0992778563940725e+02 0 0 0
3071 123 4 0.0000000000000000e+00 -8.5927245538394800e+01 -3.8557860975305253e+01 -1.0734384775240358e+02 0 0 0
3069 123 3 0.0000000000000000e+00 -7.3470932546320071e+01 -3.2642875890727005e+01 -1.1010458697845891e+02 0 0 0
3068 123 4 0.0000000000000000e+00 -7.1615327245698907e+01 -3.2877125206343848e+01 -1.1983041399674258e+02 0 0 0
4451 179 3 0.0000000000000000e+00 -5.7462930452372724e+01 -3.3068130353798033e+01 -1.1682635115394574e+02 0 0 0
582 24 1 0.0000000000000000e+00 -6.6003773492963219e+01 -4.0313627026291897e+01 -1.1434128426883886e+02 0 0 0
2386 96 2 0.0000000000000000e+00 -5.3749885180205226e+01 -4.0587129307587169e+01 -1.0889010025952935e+02 0 0 0
4453 179 4 0.0000000000000000e+00 -4.4849696199201063e+01 -4.0958315049483616e+01 -1.1838310668423229e+02 0 0 0
4454 179 4 0.0000000000000000e+00 -3.9766919300887984e+01 -3.6388104472747557e+01 -1.1052605401564399e+02 0 0 0
1843 74 2 0.0000000000000000e+00 -3.3085820775295659e+01 -3.3121246100878473e+01 -1.2125455737621422e+02 0 0 0
1841 74 2 0.0000000000000000e+00 -1.4899893613991477e+01 -3.2332827622314092e+01 -1.1640233673052104e+02 0 0 0
2069 83 1 0.0000000000000000e+00 -6.1048410090499061e+01 -2.3166762448576598e+01 -1.2013900516149003e+02 0 0 0
2070 83 2 0.0000000000000000e+00 -5.1776362487769369e+01 -2.3851084985006146e+01 -1.1602684117072813e+02 0 0 0
4455 179 4 0.0000000000000000e+00 -3.3016117951264434e+01 -2.8832796332235841e+01 -1.0875668693165311e+02 0 0 0
4456 179 4 0.0000000000000000e+00 -2.6114720977292468e+01 -2.5856667190534061e+01 -1.1614835830665527e+02 0 0 0
1832 74 1 0.0000000000000000e+00 -1.3397811299418796e+01 -1.9687952076131662e+01 -1.1575636379776678e+02 0 0 0
1840 74 2 0.0000000000000000e+00 -1.0894819904415023e+01 -2.8257162167466561e+01 -1.0785788572792153e+02 0 0 0
2057 83 1 0.0000000000000000e+00 -7.8980172819627199e+01 -1.3073281277648274e+01 -1.1905971278262605e+02 0 0 0
2056 83 2 0.0000000000000000e+00 -7.9202100583038145e+01 -1.6792480797938875e+01 -1.0950069857531857e+02 0 0 0
2703 109 4 0.0000000000000000e+00 -7.9161762178297181e+01 -5.7192945138947984e+00 -1.0904091923159859e+02 0 0 0
2702 109 4 0.0000000000000000e+00 -7.1472860589520351e+01 -8.7464610201176498e+00 -1.1522062687847578e+02 0 0 0
1051 43 1 0.0000000000000000e+00 -4.9068602356319964e+01 -1.1038279955571300e+01 -1.2012862909728793e+02 0 0 0
3631 146 4 0.0000000000000000e+00 -4.8661015471993707e+01 -8.5405961187640855e+00 -1.1135141697901936e+02 0 0 0
2071 83 2 0.0000000000000000e+00 -5.4225811424898232e+01 -1.8008062948095862e+01 -1.0803547920290784e+02 0 0 0
3630 146 4 0.0000000000000000e+00 -3.9815129827244910e+01 -1.1985643646642693e+01 -1.1533542851453485e+02 0 0 0
3178 128 4 0.0000000000000000e+00 -2.6388277398304922e+01 -1.0785760758829618e+01 -1.1307741235700468e+02 0 0 0
2160 87 2 0.0000000000000000e+00 -1.6228573362345411e+01 -8.7878287094358232e+00 -1.1642633677148113e+02 0 0 0
2159 87 2 0.0000000000000000e+00 -6.6342720313935750e+00 -1.0684559098209641e+01 -1.1527013277780313e+02 0 0 0
2009 81 2 0.0000000000000000e+00 -1.0379590673819044e+02 5.7303403311672954e+00 -1.1851911882974660e+02 0 0 0
2879 116 4 0.0000000000000000e+00 -1.0839677359484733e+02 2.3229691095107925e+00 -1.0859175590547139e+02 0 0 0
2010 81 2 0.0000000000000000e+00 -9.4277637090046767e+01 1.9411189223008352e+00 -1.1640545971827707e+02 0 0 0
2011 81 2 0.0000000000000000e+00 -8.5203534726076299e+01 3.4947232448311452e+00 -1.1323317457654893e+02 0 0 0
2012 81 2 0.0000000000000000e+00 -7.5681933214977789e+01 7.4953660443258805e+00 -1.1039580761260457e+02 0 0 0
2172 87 2 0.0000000000000000e+00 -6.1430612232373463e+01 -3.9586096016491323e-01 -1.1046694646918985e+02 0 0 0
2173 87 2 0.0000000000000000e+00 -5.2226329647030383e+01 2.8545062848062335e+00 -1.0850591573306684e+02 0 0 0
2995 120 4 0.0000000000000000e+00 -3.9305231612001727e+01 -1.1149670983892617e+00 -1.1614587400792725e+02 0 0 0
2994 120 3 0.0000000000000000e+00 -4.0617051634704517e+01 3.3446522907759744e+00 -1.0747161570581163e+02 0 0 0
2161 87 2 0.0000000000000000e+00 -2.2047499736195153e+01 -8.5906432498821561e-01 -1.1371889790167511e+02 0 0 0
2162 87 2 0.0000000000000000e+00 -2.7635015000202291e+01 4.8150548097647947e+00 -1.0754049316568809e+02 0 0 0
4786 192 4 0.0000000000000000e+00 -1.2749414006219782e+01 3.3374796248896144e+00 -1.1924768693657312e+02 0 0 0
937 38 2 0.0000000000000000e+00 -7.0502012400263920e+00 -7.8999810089419009e-01 -1.1085050783902281e+02 0 0 0
4787 192 4 0.0000000000000000e+00 -3.0984762163225454e+00 6.3729334890197373e+00 -1.1786820127548081e+02 0 0 0
1991 80 2 0.0000000000000000e+00 -7.6068360634563561e+01 -8.0558407344129179e+01 -1.0713637976887163e+02 0 0 0
1990 80 2 0.0000000000000000e+00 -8.4533135122436008e+01 -7.5479033373997979e+01 -1.0643926556141803e+02 0 0 0
4193 168 4 0.0000000000000000e+00 -6.0451126594477330e+01 -7.5404383279373477e+01 -1.0382587658101454e+02 0 0 0
4157 167 3 0.0000000000000000e+00 -3.9842798757150192e+01 -7.4916158408740657e+01 -9.8668851308321692e+01 0 0 0
1986 80 2 0.0000000000000000e+00 -1.1755504420533897e+02 -6.0006692808612485e+01 -1.0513633609454831e+02 0 0 0
1987 80 2 0.0000000000000000e+00 -1.0969661026314786e+02 -6.7381810892131938e+01 -1.0523266847879900e+02 0 0 0
1988 80 1 0.0000000000000000e+00 -1.0189861326666714e+02 -7.2394820032053744e+01 -1.0276077206182558e+02 0 0 0
4200 168 3 0.0000000000000000e+00 -1.0167082552526931e+02 -6.2532350178728628e+01 -9.7378999304215952e+01 0 0 0
4199 168 4 0.0000000000000000e+00 -9.7322434381588096e+01 -6.1845112790889566e+01 -1.0605432079368038e+02 0 0 0
1989 80 2 0.0000000000000000e+00 -9.2260049963881514e+01 -7.1870250414696059e+01 -1.0230630392314252e+02 0 0 0
3849 154 4 0.0000000000000000e+00 -8.7059845160898917e+01 -6.3031518146035268e+01 -1.0266870840407931e+02 0 0 0
3171 127 4 0.0000000000000000e+00 -6.3543999383967211e+01 -5.9962029200375319e+01 -9.9961085912514264e+01 0 0 0
4192 168 4 0.0000000000000000e+00 -5.4176909109993964e+01 -6.7786253926725522e+01 -1.0470853600879380e+02 0 0 0
4191 168 4 0.0000000000000000e+00 -4.8352505187710278e+01 -6.0469267488048153e+01 -1.0124223974736191e+02 0 0 0
256 11 2 0.0000000000000000e+00 -1.1094634601322607e+01 -6.3620994323267837e+01 -1.0141013863075639e+02 0 0 0
3848 154 4 0.0000000000000000e+00 -8.7684572906136324e+01 -5.6192213075838495e+01 -9.5307311446877392e+01 0 0 0
2396 96 2 0.0000000000000000e+00 -7.4543323321779312e+01 -5.4529347108765840e+01 -9.9238033112418194e+01 0 0 0
1998 80 2 0.0000000000000000e+00 -5.2074895875195153e+01 -4.7637421945511889e+01 -1.0087398860350011e+02 0 0 0
4190 168 4 0.0000000000000000e+00 -4.3832156178408695e+01 -5.2417469538440926e+01 -9.7342757982143681e+01 0 0 0
264 11 2 0.0000000000000000e+00 -2.4606483350225279e+01 -5.7694431654737457e+01 -1.0148700169963575e+02 0 0 0
263 11 1 0.0000000000000000e+00 -1.8294475330201614e+01 -5.2381357714182428e+01 -9.4511035648393289e+01 0 0 0
257 11 1 0.0000000000000000e+00 -5.1272496495074078e+00 -5.7838032440440941e+01 -1.0707131897124059e+02 0 0 0
262 11 2 0.0000000000000000e+00 -8.7009484730812741e+00 -5.0717784187749750e+01 -9.4507328538388521e+01 0 0 0
1170 47 2 0.0000000000000000e+00 -7.6071627507323143e+00 -4.5765185321206445e+01 -1.0401033249553549e+02 0 0 0
1984 80 2 0.0000000000000000e+00 -1.2047054124273771e+02 -4.1038409377763394e+01 -1.0381804579365981e+02 0 0 0
1983 80 2 0.0000000000000000e+00 -1.2347941710156690e+02 -3.3134888088975849e+01 -9.8444427855246559e+01 0 0 0
3074 123 4 0.0000000000000000e+00 -1.0948229809957773e+02 -3.7812018613462172e+01 -9.6435513220075023e+01 0 0 0
3073 123 4 0.0000000000000000e+00 -1.0154177581933970e+02 -3.5372800762701168e+01 -1.0225865749605495e+02 0 0 0
3070 123 4 0.0000000000000000e+00 -7.8131954478583978e+01 -3.5399958369763453e+01 -1.0151999300749753e+02 0 0 0
581 24 2 0.0000000000000000e+00 -6.1442313350772217e+01 -3.4379968331250460e+01 -1.0705378879603667e+02 0 0 0
585 24 2 0.0000000000000000e+00 -6.9423076118028121e+01 -4.3208203366106162e+01 -9.8434494251382475e+01 0 0 0
2385 96 2 0.0000000000000000e+00 -4.6492697596221497e+01 -3.6894702267545554e+01 -1.0209852461566695e+02 0 0 0
2384 96 2 0.0000000000000000e+00 -4.7662368763270784e+01 -3.2353802094734135e+01 -9.3591070953179369e+01 0 0 0
4000 160 3 0.0000000000000000e+00 -3.4547323532174232e+01 -4.0945619628200774e+01 -1.0154590663990170e+02 0 0 0
1663 67 1 0.0000000000000000e+00 -3.7343398918480361e+01 -3.2125029156324302e+01 -9.5399008477189980e+01 0 0 0
3999 160 4 0.0000000000000000e+00 -2.5837909621831379e+01 -4.0720798420719760e+01 -9.6945376080805403e+01 0 0 0
1171 47 2 0.0000000000000000e+00 -1.7407700531861238e+01 -4.4713152257779065e+01 -1.0373310398486291e+02 0 0 0
1172 47 2 0.0000000000000000e+00 -1.9084283157582405e+01 -3.5208921834924134e+01 -1.0396281841557088e+02 0 0 0
2725 109 3 0.0000000000000000e+00 -2.1973494603539598e+00 -3.9046268997410216e+01 -9.4290802851646774e+01 0 0 0
2708 109 4 0.0000000000000000e+00 -1.1022160720529634e+02 -2.5826392728620114e+01 -9.3651183669227265e+01 0 0 0
3159 127 4 0.0000000000000000e+00 -8.7494406485260853e+01 -2.5159388600507672e+01 -1.0606446824790208e+02 0 0 0
3160 127 4 0.0000000000000000e+00 -8.7579288346170685e+01 -2.8830397277324021e+01 -9.6617761525509692e+01 0 0 0
3158 127 4 0.0000000000000000e+00 -7.8642735990014145e+01 -2.3643635795360698e+01 -1.0142718229244799e+02 0 0 0
2169 87 1 0.0000000000000000e+00 -6.8736119987356304e+01 -2.1767477295009357e+01 -1.0249343712536248e+02 0 0 0
2168 87 2 0.0000000000000000e+00 -6.6497203155309506e+01 -3.0164321722625754e+01 -9.8609454481159261e+01 0 0 0
2167 87 2 0.0000000000000000e+00 -5.7293825973647998e+01 -2.7703442737281584e+01 -9.5702840071065438e+01 0 0 0
580 24 2 0.0000000000000000e+00 -5.3880641770524093e+01 -2.8324503897619675e+01 -1.0500516403599002e+02 0 0 0
579 24 2 0.0000000000000000e+00 -4.3648442347281865e+01 -2.7313331313620733e+01 -1.0279189817359077e+02 0 0 0
2166 87 2 0.0000000000000000e+00 -4.9788860123624971e+01 -2.0512384061718873e+01 -9.4852824341227901e+01 0 0 0
1664 67 2 0.0000000000000000e+00 -3.6797009518103003e+01 -2.2064762480754375e+01 -9.5071825010294162e+01 0 0 0
1173 47 2 0.0000000000000000e+00 -2.3583506867079336e+01 -2.8454547532761843e+01 -9.7860885172431693e+01 0 0 0
1839 74 2 0.0000000000000000e+00 -7.1449100207233425e+00 -2.3453265125356623e+01 -9.9734079660471096e+01 0 0 0
2877 116 4 0.0000000000000000e+00 -1.1700622638803034e+02 -1.3153969203189792e+01 -1.0275231875030545e+02 0 0 0
2706 109 4 0.0000000000000000e+00 -1.0269918056780448e+02 -1.2727832322360355e+01 -1.0671753044123739e+02 0 0 0
1419 57 1 0.0000000000000000e+00 -9.9830312300369158e+01 -9.3287361466974961e+00 -9.7102100439888645e+01 0 0 0
2707 109 3 0.0000000000000000e+00 -1.0796233052763995e+02 -1.7521651509280577e+01 -9.9519424519707755e+01 0 0 0
1418 57 2 0.0000000000000000e+00 -9.2898076196690582e+01 -1.6316773436583855e+01 -9.7874407602411097e+01 0 0 0
2705 109 4 0.0000000000000000e+00 -9.5785184502906205e+01 -5.2815814217789487e+00 -1.0697478990802516e+02 0 0 0
3157 127 3 0.0000000000000000e+00 -7.5020436160429782e+01 -1.7630608465908281e+01 -9.4346810462761781e+01 0 0 0
2055 83 2 0.0000000000000000e+00 -8.3667745589319551e+01 -1.3193063862755297e+01 -1.0169798244162533e+02 0 0 0
2054 83 2 0.0000000000000000e+00 -8.1212552268866474e+01 -6.3917870267636543e+00 -9.4702538255828870e+01 0 0 0
2170 87 2 0.0000000000000000e+00 -7.0300715463891905e+01 -1.2173310530785050e+01 -1.0471893244677047e+02 0 0 0
3156 127 4 0.0000000000000000e+00 -6.9277455350592916e+01 -8.5473745395273522e+00 -9.5775588209897933e+01 0 0 0
2072 83 2 0.0000000000000000e+00 -6.0669706580508532e+01 -1.6912895403797901e+01 -1.0002725873425442e+02 0 0 0
3632 146 3 0.0000000000000000e+00 -5.4081706021736920e+01 -6.3700216918778754e+00 -1.0256234373093898e+02 0 0 0
578 24 2 0.0000000000000000e+00 -4.4873611718070620e+01 -1.7366835405345917e+01 -1.0450984624778607e+02 0 0 0
2165 87 2 0.0000000000000000e+00 -4.5751694290898492e+01 -1.1649962095617930e+01 -9.4102554452537348e+01 0 0 0
577 24 2 0.0000000000000000e+00 -3.4453326603340997e+01 -1.6623480370190727e+01 -1.0261166902758767e+02 0 0 0
2164 87 2 0.0000000000000000e+00 -3.8381482441112020e+01 -5.0492802265191887e+00 -9.3827374657320647e+01 0 0 0
3177 128 4 0.0000000000000000e+00 -2.1795642232625898e+01 -1.5518700420928035e+01 -1.0549930566548399e+02 0 0 0
3176 128 3 0.0000000000000000e+00 -1.8955563491132953e+01 -1.5869367804419714e+01 -9.6118408455490680e+01 0 0 0
576 24 1 0.0000000000000000e+00 -2.8207985851194092e+01 -9.6713149697489040e+00 -9.9295858535376638e+01 0 0 0
1838 74 1 0.0000000000000000e+00 -2.7317959194656432e+00 -1.5418661811055285e+01 -9.4776275492491948e+01 0 0 0
1833 74 2 0.0000000000000000e+00 -1.0687873097028250e+01 -1.5963990093983952e+01 -1.0684138494950426e+02 0 0 0
1834 74 2 0.0000000000000000e+00 -1.1035942227572397e+01 -1.0512398207371408e+01 -9.8335950609447778e+01 0 0 0
2878 116 4 0.0000000000000000e+00 -1.1169234092736436e+02 -4.6906617288670409e+00 -1.0242644382302572e+02 0 0 0
1420 57 2 0.0000000000000000e+00 -1.0215226086052456e+02 1.1183475108430982e+00 -9.7797716955754780e+01 0 0 0
3525 141 3 0.0000000000000000e+00 -9.0773012076948774e+01 1.8098062378277942e+00 -9.6809116378855748e+01 0 0 0
2704 109 4 0.0000000000000000e+00 -8.6745592925727365e+01 -1.0278924500440938e+00 -1.0457482632120217e+02 0 0 0
1726 70 1 0.0000000000000000e+00 -7.4756384946498400e+01 2.6736930368066010e+00 -9.5311367262012951e+01 0 0 0
2171 87 2 0.0000000000000000e+00 -7.0163401653420181e+01 -2.2032921415149129e+00 -1.0524910370401052e+02 0 0 0
3155 127 4 0.0000000000000000e+00 -6.4721742284599202e+01 4.5574378018396627e-01 -9.3914517911955841e+01 0 0 0
500 20 1 0.0000000000000000e+00 -5.8703988223860435e+01 3.8368347001180010e+00 -1.0170071529971810e+02 0 0 0