LAMMPS data file via write_data, version 5 Jun 2019, timestep = 330000000

5000 atoms
4 atom types
5296 bonds
3 bond types
4600 angles
2 angle types

-2.5000000000000000e+02 2.5000000000000000e+02 xlo xhi
-2.5000000000000000e+02 2.5000000000000000e+02 ylo yhi
-2.5000000000000000e+02 2.5000000000000000e+02 zlo zhi

Masses

1 1000
2 1000
3 1000
4 1000

Pair Coeffs # lj/cut

1 0.3 10
2 0.3 10
3 0.3 10
4 0.3 10

Bond Coeffs # harmonic

1 3 10
2 3 10
3 3 11.22

Angle Coeffs # cosine

1 2
2 2

Atoms # full

3211 129 4 0.0000000000000000e+00 5.8897696016614125e+00 5.1008923974541629e+00 -1.7955416725783999e+02 0 0 0
3210 129 4 0.0000000000000000e+00 -2.6245126234874139e+00 1.0713198765265105e+01 -1.8077851105280376e+02 0 0 0
1991 80 2 0.0000000000000000e+00 -6.8721071827567457e+01 -4.3311930475809675e+01 -1.6496716222124118e+02 0 0 0
1990 80 2 0.0000000000000000e+00 -6.0836873553642079e+01 -3.7218303626024159e+01 -1.6642076601184803e+02 0 0 0
4196 168 4 0.0000000000000000e+00 -5.3874187276398402e+01 -4.3995342596559496e+01 -1.6633039843254778e+02 0 0 0
4197 168 4 0.0000000000000000e+00 -4.4892231936062146e+01 -4.2318975344961167e+01 -1.7113716871603160e+02 0 0 0
4198 168 4 0.0000000000000000e+00 -3.5376137067211872e+01 -3.9247686839116241e+01 -1.6996516254121943e+02 0 0 0
4199 168 4 0.0000000000000000e+00 -4.2492743400297982e+01 -3.2174396452957367e+01 -1.6803237807340608e+02 0 0 0
1989 80 2 0.0000000000000000e+00 -5.2939466040674823e+01 -3.0953446676532543e+01 -1.6974375350562832e+02 0 0 0
1988 80 1 0.0000000000000000e+00 -4.5839479137430729e+01 -2.3330419470516880e+01 -1.6737922127382254e+02 0 0 0
2246 90 2 0.0000000000000000e+00 -2.6281621403016604e+01 -1.1888262849914755e+00 -1.6839540001744166e+02 0 0 0
2245 90 2 0.0000000000000000e+00 -1.7721089606984087e+01 4.3986435791832852e+00 -1.7064312071227840e+02 0 0 0
3055 123 4 0.0000000000000000e+00 -6.6846965536238585e+01 2.2954417461884638e+01 -1.7719852784392012e+02 0 0 0
3056 123 4 0.0000000000000000e+00 -6.0421358999910339e+01 1.7536336356662535e+01 -1.7108554343054107e+02 0 0 0
4463 179 3 0.0000000000000000e+00 -1.8165644862393844e+01 2.0926302333490884e+01 -1.6642354889255731e+02 0 0 0
2244 90 1 0.0000000000000000e+00 -1.2562696101156874e+01 1.2869159622395077e+01 -1.7214514114896380e+02 0 0 0
2243 90 2 0.0000000000000000e+00 -1.3530085026415907e+01 2.2660951509954810e+01 -1.7544575938702789e+02 0 0 0
3209 129 4 0.0000000000000000e+00 -3.6063667379160411e+00 1.9418237387302035e+01 -1.7566070078981414e+02 0 0 0
466 19 2 0.0000000000000000e+00 5.5312416054822311e+00 2.0433554736988487e+01 -1.6456772531021826e+02 0 0 0
465 19 2 0.0000000000000000e+00 5.0637903679863285e+00 1.0463985715732107e+01 -1.6580430342514552e+02 0 0 0
1992 80 2 0.0000000000000000e+00 -7.8073648471355057e+01 -4.6181057701939224e+01 -1.6228326940187094e+02 0 0 0
1993 80 2 0.0000000000000000e+00 -8.4269366800836096e+01 -4.9261655568570987e+01 -1.5524482198835796e+02 0 0 0
4194 168 3 0.0000000000000000e+00 -6.4525297557579563e+01 -4.7559672475322188e+01 -1.5025601004807638e+02 0 0 0
4195 168 4 0.0000000000000000e+00 -6.0459614580329728e+01 -4.4172829753760603e+01 -1.5877930525373964e+02 0 0 0
2392 96 2 0.0000000000000000e+00 -9.9747028284525854e+01 -2.1161811766809539e+01 -1.5301705214187433e+02 0 0 0
3069 123 3 0.0000000000000000e+00 -6.5404657150845154e+01 -1.8743698862734821e+01 -1.5525904670196755e+02 0 0 0
4200 168 3 0.0000000000000000e+00 -4.8577650724480293e+01 -3.0812313956566367e+01 -1.6008351414263407e+02 0 0 0
2391 96 2 0.0000000000000000e+00 -1.0378584845995502e+02 -1.1756193484907257e+01 -1.5355222665541467e+02 0 0 0
2390 96 2 0.0000000000000000e+00 -9.6642071952865905e+01 -5.2101818300801828e+00 -1.5217373082137851e+02 0 0 0
3070 123 4 0.0000000000000000e+00 -7.4803095082227685e+01 -1.5654991715107119e+01 -1.5852327006301621e+02 0 0 0
3071 123 4 0.0000000000000000e+00 -8.1560895448677954e+01 -1.4313103889718798e+01 -1.5115410550438580e+02 0 0 0
1987 80 2 0.0000000000000000e+00 -4.7848177852740854e+01 -1.6352844118371102e+01 -1.5999704208670815e+02 0 0 0
1986 80 2 0.0000000000000000e+00 -5.2117293474369127e+01 -1.3084565718757680e+01 -1.5101726926638810e+02 0 0 0
4460 179 4 0.0000000000000000e+00 -2.9687663070419525e+01 -4.6841803938306761e+00 -1.5683782509423057e+02 0 0 0
463 19 1 0.0000000000000000e+00 6.6439511998026362e+00 -7.7327443449722386e+00 -1.5695576354905916e+02 0 0 0
462 19 2 0.0000000000000000e+00 -2.5909687999831804e-01 -1.5138735679444649e+01 -1.5368771200120798e+02 0 0 0
4750 190 3 0.0000000000000000e+00 -1.1919968187693743e+02 5.6203536798365505e-01 -1.5008106764712628e+02 0 0 0
4749 190 4 0.0000000000000000e+00 -1.1278125710867469e+02 6.7914881968371343e+00 -1.5508416210950361e+02 0 0 0
2247 90 2 0.0000000000000000e+00 -3.3581337945852916e+01 2.2126214656122332e+00 -1.6282331577792900e+02 0 0 0
2248 90 2 0.0000000000000000e+00 -4.2183357628939831e+01 1.3475613475524870e+00 -1.5729423033230427e+02 0 0 0
4461 179 4 0.0000000000000000e+00 -2.2272595625162285e+01 2.6906363856293662e+00 -1.5811411977047803e+02 0 0 0
464 19 2 0.0000000000000000e+00 6.3228520532792647e+00 2.1190151171796612e+00 -1.5994597139284801e+02 0 0 0
4748 190 4 0.0000000000000000e+00 -1.1572406988980501e+02 1.5859007915111283e+01 -1.5794845108655994e+02 0 0 0
2902 117 4 0.0000000000000000e+00 -1.0126716459489136e+02 2.1026525255083659e+01 -1.5007296691258864e+02 0 0 0
2233 90 2 0.0000000000000000e+00 -8.7441766349091850e+01 1.2283423588848896e+01 -1.6271072315861880e+02 0 0 0
2232 90 1 0.0000000000000000e+00 -8.7284702369721685e+01 1.2712008272739279e+01 -1.5258584488468011e+02 0 0 0
2901 117 3 0.0000000000000000e+00 -9.2336804995265226e+01 2.2194155450095785e+01 -1.5477926324974493e+02 0 0 0
2234 90 2 0.0000000000000000e+00 -8.0430864963896838e+01 1.7103089216708117e+01 -1.5790557963879658e+02 0 0 0
3057 123 3 0.0000000000000000e+00 -6.2501002806757704e+01 1.0673294408661716e+01 -1.6375482840399872e+02 0 0 0
3058 123 4 0.0000000000000000e+00 -6.2424957746601798e+01 1.1202882323682600e+01 -1.5354563402199662e+02 0 0 0
2235 90 2 0.0000000000000000e+00 -7.1196885878460506e+01 2.1549455005085601e+01 -1.5838870039561266e+02 0 0 0
3408 137 4 0.0000000000000000e+00 -5.9661515482532550e+01 2.0682973615010841e+01 -1.5099395695003022e+02 0 0 0
401 17 1 0.0000000000000000e+00 -5.2655106184606090e+01 1.5038143991463720e+01 -1.5913582431704415e+02 0 0 0
402 17 2 0.0000000000000000e+00 -4.2500430351401029e+01 1.3658915313326187e+01 -1.5884567710424119e+02 0 0 0
403 17 2 0.0000000000000000e+00 -3.4276449115076758e+01 1.9227886276618275e+01 -1.5687807094843632e+02 0 0 0
4462 179 4 0.0000000000000000e+00 -1.9140652582568492e+01 1.1269792392256999e+01 -1.6281916239536551e+02 0 0 0
404 17 2 0.0000000000000000e+00 -2.4395350777566378e+01 2.0613706640476629e+01 -1.5519062989064892e+02 0 0 0
1994 80 1 0.0000000000000000e+00 -7.5854255254302757e+01 -4.9636196035210496e+01 -1.4966360976112927e+02 0 0 0
1995 80 2 0.0000000000000000e+00 -7.1966855369614251e+01 -4.7361421016353702e+01 -1.4032028750719476e+02 0 0 0
1849 74 2 0.0000000000000000e+00 -4.5004817913874419e+01 -4.7209617770949762e+01 -1.3858637043107748e+02 0 0 0
2395 96 2 0.0000000000000000e+00 -1.0314732652891281e+02 -4.2357500008963164e+01 -1.3918605032338286e+02 0 0 0
2394 96 1 0.0000000000000000e+00 -1.0253962696384987e+02 -3.8436360277727232e+01 -1.4816400711605223e+02 0 0 0
3850 154 3 0.0000000000000000e+00 -9.6958104601668737e+01 -3.5463593464457041e+01 -1.3934040880660262e+02 0 0 0
4193 168 4 0.0000000000000000e+00 -6.3838399619743726e+01 -4.1515689733727079e+01 -1.4186568139357587e+02 0 0 0
3066 123 4 0.0000000000000000e+00 -4.8862480707163499e+01 -3.7102432926420796e+01 -1.3901745496658822e+02 0 0 0
1850 74 1 0.0000000000000000e+00 -3.9683561529562098e+01 -4.1302906979567879e+01 -1.4509936547916197e+02 0 0 0
4777 192 4 0.0000000000000000e+00 -3.6097209843559050e+01 -3.2419070882154145e+01 -1.3603852734513197e+02 0 0 0
2393 96 2 0.0000000000000000e+00 -9.7061432563825548e+01 -3.0429730700150380e+01 -1.4975957483896281e+02 0 0 0
3073 123 4 0.0000000000000000e+00 -9.4742864187510989e+01 -2.2515167091575876e+01 -1.3975677834316716e+02 0 0 0
3072 123 4 0.0000000000000000e+00 -8.6163552223638007e+01 -1.9392409627118145e+01 -1.4328139493795638e+02 0 0 0
583 24 2 0.0000000000000000e+00 -7.6444139997784490e+01 -2.5636481879517188e+01 -1.3915809760389254e+02 0 0 0
582 24 1 0.0000000000000000e+00 -6.9041071566675328e+01 -2.4366385467569419e+01 -1.4617034436189599e+02 0 0 0
581 24 2 0.0000000000000000e+00 -6.6612466423537867e+01 -2.1122857283485136e+01 -1.3707034641280495e+02 0 0 0
3068 123 4 0.0000000000000000e+00 -5.9548634518866450e+01 -2.5371380185876966e+01 -1.4966584468443418e+02 0 0 0
3067 123 4 0.0000000000000000e+00 -5.1516513649776464e+01 -3.0688059708016894e+01 -1.4635463456437850e+02 0 0 0
4776 192 3 0.0000000000000000e+00 -4.0182848579786096e+01 -3.0203470765022594e+01 -1.4491834813440528e+02 0 0 0
2389 96 2 0.0000000000000000e+00 -1.0151442366352732e+02 -5.2174709616945885e+00 -1.4361287065147937e+02 0 0 0
3074 123 4 0.0000000000000000e+00 -9.1430713008006066e+01 -1.3474392289765769e+01 -1.3651953352640811e+02 0 0 0
1983 80 2 0.0000000000000000e+00 -7.7190765672296763e+01 -9.2567020699233495e+00 -1.3909060884882607e+02 0 0 0
1984 80 2 0.0000000000000000e+00 -6.9173156786815895e+01 -9.9215027460635756e+00 -1.4497925702650934e+02 0 0 0
1985 80 2 0.0000000000000000e+00 -5.9336335303023517e+01 -9.4782110180308248e+00 -1.4384422089733749e+02 0 0 0
4458 179 4 0.0000000000000000e+00 -3.5243261440043852e+01 -1.4714966528653298e+01 -1.4039393875759330e+02 0 0 0
2250 90 1 0.0000000000000000e+00 -4.4543227327288434e+01 -6.5811777047275211e+00 -1.4037680374312180e+02 0 0 0
2249 90 2 0.0000000000000000e+00 -4.3032506446126646e+01 -4.5759954433053469e+00 -1.4937335359816035e+02 0 0 0
4459 179 4 0.0000000000000000e+00 -3.1993509942711523e+01 -1.1578157202662183e+01 -1.4962962021663805e+02 0 0 0
1455 59 2 0.0000000000000000e+00 -2.0499919988327711e+01 -9.2006556188131761e+00 -1.3957630870361439e+02 0 0 0
1456 59 2 0.0000000000000000e+00 -1.2883749957697560e+01 -1.4932246313243560e+01 -1.4306088772072937e+02 0 0 0
1457 59 1 0.0000000000000000e+00 -4.7527438676481566e+00 -1.5868632981066797e+01 -1.3690042854574162e+02 0 0 0
461 19 2 0.0000000000000000e+00 5.0740736124070782e+00 -1.5544869405810537e+01 -1.4471604290195990e+02 0 0 0
1458 59 2 0.0000000000000000e+00 3.3255891581189281e+00 -9.8207351092831239e+00 -1.3600064214210275e+02 0 0 0
1976 80 1 0.0000000000000000e+00 -1.2748051433726243e+02 -5.9307562409818793e-01 -1.4195852128286577e+02 0 0 0
3059 123 4 0.0000000000000000e+00 -5.9863645869861607e+01 3.2911707741182967e+00 -1.4829138579685710e+02 0 0 0
3060 123 4 0.0000000000000000e+00 -6.4236377148791561e+01 -2.3210475043818993e-01 -1.3997967292716351e+02 0 0 0
1451 59 1 0.0000000000000000e+00 -4.9873088633578185e+01 4.7398657557427182e+00 -1.4479294112093729e+02 0 0 0
1452 59 2 0.0000000000000000e+00 -4.0365879723804746e+01 6.8138190511379761e+00 -1.4322451949968132e+02 0 0 0
1453 59 2 0.0000000000000000e+00 -3.1026910871482634e+01 5.7092007390344524e+00 -1.4494436723169807e+02 0 0 0
1454 59 2 0.0000000000000000e+00 -2.4516656344181982e+01 -3.2722269336812182e-01 -1.4028291382097234e+02 0 0 0
410 17 2 0.0000000000000000e+00 3.3396253380129934e+00 9.0844209750101896e+00 -1.4615625013891588e+02 0 0 0
2231 90 2 0.0000000000000000e+00 -8.8410592303667755e+01 1.2390697353342473e+01 -1.4221639761432559e+02 0 0 0
4473 179 4 0.0000000000000000e+00 -8.2935553811090912e+01 2.0430874739090175e+01 -1.4295943090252689e+02 0 0 0
1055 43 2 0.0000000000000000e+00 -5.9120477199941924e+01 1.4322452071024463e+01 -1.3560306450682023e+02 0 0 0
3407 137 3 0.0000000000000000e+00 -5.2019229404246047e+01 1.5687506801457301e+01 -1.4611816491379125e+02 0 0 0
1056 43 2 0.0000000000000000e+00 -4.9681721722818317e+01 1.1941540150902407e+01 -1.3560465405462898e+02 0 0 0
3406 137 4 0.0000000000000000e+00 -4.2427063019425056e+01 1.6350719355451901e+01 -1.4778500630393930e+02 0 0 0
3405 137 4 0.0000000000000000e+00 -3.4392479200716700e+01 1.5829472405980283e+01 -1.4135150828345394e+02 0 0 0
3404 137 4 0.0000000000000000e+00 -2.4394167985508698e+01 1.7269442362244899e+01 -1.4118913599980868e+02 0 0 0
3403 137 4 0.0000000000000000e+00 -1.6089825774626853e+01 1.2626119292780917e+01 -1.4314949364368829e+02 0 0 0
411 17 2 0.0000000000000000e+00 7.2397837463442176e+00 1.2736383492094214e+01 -1.3731542789899376e+02 0 0 0
2396 96 2 0.0000000000000000e+00 -1.0396821783767602e+02 -4.7564213040832527e+01 -1.3103390070368599e+02 0 0 0
2397 96 2 0.0000000000000000e+00 -1.0070276644006726e+02 -5.2124124513043739e+01 -1.2209031500386767e+02 0 0 0
1997 80 2 0.0000000000000000e+00 -6.9273174870658238e+01 -5.2316480205180497e+01 -1.2204962353748023e+02 0 0 0
1996 80 2 0.0000000000000000e+00 -7.0273651406885634e+01 -4.6662734078905849e+01 -1.3022767592141292e+02 0 0 0
1847 74 2 0.0000000000000000e+00 -5.0110101199264513e+01 -5.8057127995307766e+01 -1.2296514980879368e+02 0 0 0
1848 74 2 0.0000000000000000e+00 -4.9913756878791560e+01 -5.3256222956408770e+01 -1.3243795530996198e+02 0 0 0
3848 154 4 0.0000000000000000e+00 -9.8516105053047198e+01 -3.4241362366992412e+01 -1.2468611048264620e+02 0 0 0
4192 168 4 0.0000000000000000e+00 -5.9695344903862718e+01 -3.9098450555651276e+01 -1.3348302970145107e+02 0 0 0
4191 168 4 0.0000000000000000e+00 -6.4885635354742732e+01 -3.9475243971951564e+01 -1.2535212954803586e+02 0 0 0
271 11 2 0.0000000000000000e+00 -4.6725102867791534e+01 -3.4312320682311814e+01 -1.2144771928175270e+02 0 0 0
270 11 2 0.0000000000000000e+00 -4.1707823734688880e+01 -4.3172863368498788e+01 -1.2234114590723134e+02 0 0 0
4000 160 3 0.0000000000000000e+00 -2.7247625472458370e+01 -3.7785052046370005e+01 -1.2284470314834462e+02 0 0 0
4778 192 4 0.0000000000000000e+00 -2.6383988981083711e+01 -3.4172201443911042e+01 -1.3289057236530192e+02 0 0 0
1663 67 1 0.0000000000000000e+00 -1.7119360057456287e+01 -3.2268981088159578e+01 -1.2370453356010843e+02 0 0 0
3849 154 4 0.0000000000000000e+00 -9.3599853635615176e+01 -3.0063750235695942e+01 -1.3251282959464777e+02 0 0 0
2385 96 2 0.0000000000000000e+00 -9.0425095763235319e+01 -2.9028426409877586e+01 -1.2156287860424553e+02 0 0 0
2386 96 2 0.0000000000000000e+00 -9.5622145868477276e+01 -2.0380291562652861e+01 -1.2327102238194097e+02 0 0 0
584 24 2 0.0000000000000000e+00 -8.0175944924089990e+01 -2.3296530670182246e+01 -1.2999676808224817e+02 0 0 0
580 24 2 0.0000000000000000e+00 -6.4644205047602625e+01 -2.4583550754160605e+01 -1.2786119263454954e+02 0 0 0
3065 123 4 0.0000000000000000e+00 -4.6888326631389333e+01 -2.8150772693861160e+01 -1.3546349016010740e+02 0 0 0
3064 123 4 0.0000000000000000e+00 -4.6201162581358517e+01 -1.8504718370761996e+01 -1.3137857571761651e+02 0 0 0
1664 67 2 0.0000000000000000e+00 -2.5256109701258087e+01 -2.6200828002952928e+01 -1.2497934461350977e+02 0 0 0
4779 192 4 0.0000000000000000e+00 -1.7287705683859450e+01 -3.0538314961329625e+01 -1.3368666644155951e+02 0 0 0
4780 192 4 0.0000000000000000e+00 -1.6483123323037074e+01 -2.0912993024940313e+01 -1.3229488006252697e+02 0 0 0
3175 127 3 0.0000000000000000e+00 -1.1451547889140831e+02 -6.6592441857531854e+00 -1.2803876315312112e+02 0 0 0
3174 127 4 0.0000000000000000e+00 -1.1392908758527604e+02 -1.6198536280477700e+01 -1.2612450429831931e+02 0 0 0
2388 96 1 0.0000000000000000e+00 -1.0589853817629600e+02 -8.9393356914348363e+00 -1.3532084332908661e+02 0 0 0
2387 96 2 0.0000000000000000e+00 -1.0120531948709571e+02 -1.3204996918646311e+01 -1.2753989022612090e+02 0 0 0
3075 123 3 0.0000000000000000e+00 -8.2262343400685452e+01 -1.3245572809441137e+01 -1.3200559097079784e+02 0 0 0
4451 179 3 0.0000000000000000e+00 -7.1969173168847107e+01 -6.9563515669168492e+00 -1.2619484721036675e+02 0 0 0
3061 123 4 0.0000000000000000e+00 -6.4826586647898907e+01 -6.8755157864014338e+00 -1.3258920498937115e+02 0 0 0
3062 123 4 0.0000000000000000e+00 -5.9894114175145781e+01 -1.5172857727978787e+01 -1.3102605296323836e+02 0 0 0
3063 123 3 0.0000000000000000e+00 -5.1582760493793046e+01 -9.4822777431308047e+00 -1.3140784495993069e+02 0 0 0
274 11 2 0.0000000000000000e+00 -5.3416251732357921e+01 -7.4730712631382445e+00 -1.2191262402056175e+02 0 0 0
4457 179 3 0.0000000000000000e+00 -3.8057128205023574e+01 -1.1771171495944891e+01 -1.3054368793790582e+02 0 0 0
1834 74 2 0.0000000000000000e+00 -2.4487355452517086e+01 -1.5502615910035203e+01 -1.2562617818110604e+02 0 0 0
1833 74 2 0.0000000000000000e+00 -2.7734610005967259e+01 -7.6415797137759736e+00 -1.3128227952795194e+02 0 0 0
4781 192 4 0.0000000000000000e+00 -1.1867606357221906e+01 -1.3312087475822084e+01 -1.2780060238925773e+02 0 0 0
4782 192 3 0.0000000000000000e+00 -4.1132277345770918e+00 -7.6591356901970826e+00 -1.2937940079590996e+02 0 0 0
1977 80 2 0.0000000000000000e+00 -1.2089039915315804e+02 2.0959555125804612e+00 -1.3412007853084540e+02 0 0 0
1978 80 2 0.0000000000000000e+00 -1.1434499772411044e+02 6.3179154877280181e+00 -1.2759319182109206e+02 0 0 0
1980 80 2 0.0000000000000000e+00 -1.0097379199097671e+02 1.7858572430702131e+00 -1.2700725171432161e+02 0 0 0
1981 80 2 0.0000000000000000e+00 -9.4272750593412439e+01 -2.7170005121415999e+00 -1.3343463724511801e+02 0 0 0
2065 83 2 0.0000000000000000e+00 -9.3039967754671125e+01 8.6294923079856698e+00 -1.2360910669884287e+02 0 0 0
1982 80 1 0.0000000000000000e+00 -8.4020610486682486e+01 -3.0109547026381778e+00 -1.3455791577141417e+02 0 0 0
2066 83 2 0.0000000000000000e+00 -8.5557855711542999e+01 2.8657946447861282e+00 -1.2663389124371164e+02 0 0 0
2067 83 2 0.0000000000000000e+00 -7.5212017971117064e+01 3.1710281740947508e+00 -1.2866550079623892e+02 0 0 0
2068 83 2 0.0000000000000000e+00 -6.5701214174542230e+01 1.5347452298243442e+00 -1.2685023551973879e+02 0 0 0
275 11 1 0.0000000000000000e+00 -5.4376810475465618e+01 1.3024273124741130e+00 -1.2755745222117969e+02 0 0 0
3627 146 4 0.0000000000000000e+00 -4.6465302229493517e+01 8.2527527729876677e+00 -1.2538091755867755e+02 0 0 0
1831 74 2 0.0000000000000000e+00 -3.7215803152760301e+01 -3.9066701907747787e+00 -1.2389162347651795e+02 0 0 0
3626 146 3 0.0000000000000000e+00 -4.4298476881003936e+01 1.2853941903191388e+00 -1.3281852528163037e+02 0 0 0
1832 74 1 0.0000000000000000e+00 -3.4941252382628747e+01 -1.4450780404536199e+00 -1.3398535749548392e+02 0 0 0
1059 43 2 0.0000000000000000e+00 -2.1238742645258515e+01 9.6546507872172675e+00 -1.2881544289685638e+02 0 0 0
1060 43 2 0.0000000000000000e+00 -1.1882216776613113e+01 6.1114637494000146e+00 -1.2632534457055877e+02 0 0 0
3401 137 3 0.0000000000000000e+00 -1.7104088469948024e+00 9.6844831880363937e+00 -1.3328608547202359e+02 0 0 0
4783 192 4 0.0000000000000000e+00 2.1208257011588145e+00 -1.4410405837979590e+00 -1.2448643860532002e+02 0 0 0
457 19 1 0.0000000000000000e+00 6.8783535587130604e+00 2.0325222013980770e+00 -1.3413811291138060e+02 0 0 0
2230 90 2 0.0000000000000000e+00 -9.2714877833123424e+01 1.5593065846595691e+01 -1.3417632378846028e+02 0 0 0
2229 90 2 0.0000000000000000e+00 -8.8039169435952473e+01 2.0741893923441875e+01 -1.2552387039304473e+02 0 0 0
4474 179 4 0.0000000000000000e+00 -7.7556711853048213e+01 1.6529849056367379e+01 -1.3508226508219553e+02 0 0 0
1054 43 2 0.0000000000000000e+00 -6.0966299869508632e+01 1.0743515163070072e+01 -1.2644680349949746e+02 0 0 0
4475 179 3 0.0000000000000000e+00 -6.9995147022923845e+01 1.4357120851130524e+01 -1.2850173444174564e+02 0 0 0
2996 120 4 0.0000000000000000e+00 -5.4103248012278399e+01 1.7713166540019465e+01 -1.2369364740994961e+02 0 0 0
2997 120 4 0.0000000000000000e+00 -5.4952722384362936e+01 2.2656994890513527e+01 -1.3245532188681946e+02 0 0 0
1057 43 1 0.0000000000000000e+00 -4.0081523661225440e+01 1.3998607021653958e+01 -1.3264716919244674e+02 0 0 0
3181 128 4 0.0000000000000000e+00 -4.4302199772227958e+01 2.0173309323794701e+01 -1.2622643795070043e+02 0 0 0
1058 43 2 0.0000000000000000e+00 -3.0739437438345810e+01 9.9609292452943716e+00 -1.3099334569157756e+02 0 0 0
662 27 2 0.0000000000000000e+00 -2.7876086938458279e+01 1.7179276966970427e+01 -1.2214763853180696e+02 0 0 0
661 27 2 0.0000000000000000e+00 -2.8470483168102316e+01 2.2683981931747077e+01 -1.3049985454939804e+02 0 0 0
3402 137 4 0.0000000000000000e+00 -1.1048660884055700e+01 1.2728144765497529e+01 -1.3448817752308278e+02 0 0 0
3527 142 4 0.0000000000000000e+00 -2.5686842737794446e+00 -8.8698249201966107e+01 -1.1026257041221105e+02 0 0 0
2152 87 2 0.0000000000000000e+00 -1.8908023291570753e+01 -7.6667817791082669e+01 -1.1100570615539051e+02 0 0 0
2151 87 1 0.0000000000000000e+00 -1.3559219611517110e+01 -8.4161076766243070e+01 -1.0792870984026452e+02 0 0 0
3526 142 3 0.0000000000000000e+00 -7.5893066226522183e+00 -8.2853281377978902e+01 -1.1681599403368169e+02 0 0 0
1998 80 2 0.0000000000000000e+00 -6.7306859559447972e+01 -5.9814413153814343e+01 -1.1537361697206435e+02 0 0 0
1846 74 2 0.0000000000000000e+00 -5.5018766985213034e+01 -5.9893872426205085e+01 -1.1448939248401842e+02 0 0 0
2153 87 2 0.0000000000000000e+00 -1.6037709126360983e+01 -6.7260838587271550e+01 -1.1418588387854598e+02 0 0 0
3273 131 4 0.0000000000000000e+00 2.0635478402454819e+00 -6.0026302789694689e+01 -1.0868429987149224e+02 0 0 0
2398 96 2 0.0000000000000000e+00 -9.8078573833578275e+01 -4.9267637994582905e+01 -1.1278938587404200e+02 0 0 0
4189 168 4 0.0000000000000000e+00 -6.6703495871467993e+01 -4.8099698274491928e+01 -1.0820872086106732e+02 0 0 0
269 11 1 0.0000000000000000e+00 -4.1376157673681575e+01 -5.3154444522681295e+01 -1.2040900601950995e+02 0 0 0
268 11 2 0.0000000000000000e+00 -4.3504002005299768e+01 -5.5904162240384444e+01 -1.1084738018247249e+02 0 0 0
2154 87 2 0.0000000000000000e+00 -1.3256939651786283e+01 -5.7348319585346360e+01 -1.1330511997258051e+02 0 0 0
1661 67 2 0.0000000000000000e+00 -1.7053771370394983e+01 -4.8856524610888997e+01 -1.1257327734509646e+02 0 0 0
2155 87 2 0.0000000000000000e+00 -6.2132827835655497e+00 -4.9879060479848050e+01 -1.1473341758821897e+02 0 0 0
3847 154 4 0.0000000000000000e+00 -1.0043855886940368e+02 -3.4582603712650318e+01 -1.1508060354635550e+02 0 0 0
3846 154 4 0.0000000000000000e+00 -1.0567235902588172e+02 -3.6949902321813042e+01 -1.0723990997266705e+02 0 0 0
2384 96 2 0.0000000000000000e+00 -8.4214127659478834e+01 -3.6468216773404585e+01 -1.1855928354333571e+02 0 0 0
2383 96 2 0.0000000000000000e+00 -7.4445749299199804e+01 -3.5072231707185921e+01 -1.1651304061147756e+02 0 0 0
587 24 2 0.0000000000000000e+00 -8.2454343109661892e+01 -3.7134803267029021e+01 -1.0795270381324362e+02 0 0 0
4190 168 4 0.0000000000000000e+00 -6.3150485134894851e+01 -4.2501912317116535e+01 -1.1583867981239422e+02 0 0 0
2382 96 1 0.0000000000000000e+00 -7.1431531556713963e+01 -3.7895558674617938e+01 -1.0729211796666780e+02 0 0 0
1662 67 2 0.0000000000000000e+00 -1.7744336767749310e+01 -4.0842344629315576e+01 -1.1856142494085991e+02 0 0 0
2156 87 2 0.0000000000000000e+00 -5.4577257329637900e+00 -3.9577040735660582e+01 -1.1350434890844917e+02 0 0 0
1837 74 2 0.0000000000000000e+00 -1.8237217398298768e+01 -3.5604549922006349e+01 -1.0714684018952308e+02 0 0 0
3087 124 4 0.0000000000000000e+00 3.1396882318578156e+00 -3.6413176606294648e+01 -1.0759127371365456e+02 0 0 0
3173 127 4 0.0000000000000000e+00 -1.1225231492304445e+02 -2.3780927793727095e+01 -1.2004597089909680e+02 0 0 0
3172 127 4 0.0000000000000000e+00 -1.0771238674513093e+02 -2.4688426477477009e+01 -1.1109762964522284e+02 0 0 0
585 24 2 0.0000000000000000e+00 -8.0961503320166216e+01 -2.2588526806106625e+01 -1.2025847555487277e+02 0 0 0
586 24 2 0.0000000000000000e+00 -8.4217456155805692e+01 -2.8633962154594347e+01 -1.1262755883538490e+02 0 0 0
2169 87 1 0.0000000000000000e+00 -7.9306244440939622e+01 -1.8170381000043445e+01 -1.0804643471875904e+02 0 0 0
579 24 2 0.0000000000000000e+00 -6.6926932134258593e+01 -2.3514686662866236e+01 -1.1822255110275000e+02 0 0 0
578 24 2 0.0000000000000000e+00 -6.7259860821158796e+01 -2.7798540131615365e+01 -1.0921874016921680e+02 0 0 0
272 11 2 0.0000000000000000e+00 -4.9850882062811465e+01 -2.5413183155171161e+01 -1.1763446595500281e+02 0 0 0
4454 179 4 0.0000000000000000e+00 -5.5260656097287502e+01 -1.7760849670087836e+01 -1.0795836981833776e+02 0 0 0
3999 160 4 0.0000000000000000e+00 -3.3659486278289080e+01 -3.0458967853367636e+01 -1.1928518293733842e+02 0 0 0
3998 160 4 0.0000000000000000e+00 -3.8911828667316449e+01 -2.5233278325433758e+01 -1.1281394132362642e+02 0 0 0
1665 67 2 0.0000000000000000e+00 -3.2074716049677058e+01 -2.0704379869846786e+01 -1.2022032315847125e+02 0 0 0
1835 74 2 0.0000000000000000e+00 -1.8188101832318104e+01 -2.0697381027042177e+01 -1.1949708685151012e+02 0 0 0
1836 74 2 0.0000000000000000e+00 -1.7466036387800134e+01 -2.9204078752397105e+01 -1.1406186299775192e+02 0 0 0
2157 87 1 0.0000000000000000e+00 -6.1086089228722171e+00 -3.0113651027663437e+01 -1.1068271633281947e+02 0 0 0
2158 87 2 0.0000000000000000e+00 -4.4193777442387914e+00 -2.0195989804030553e+01 -1.0958722251528862e+02 0 0 0
3088 124 3 0.0000000000000000e+00 5.0724374311705818e+00 -2.7897653860731964e+01 -1.1164483747173432e+02 0 0 0
2058 83 2 0.0000000000000000e+00 -1.1269808047847285e+02 -7.6508668670790305e+00 -1.0708889423168738e+02 0 0 0
2171 87 2 0.0000000000000000e+00 -9.3000597636686990e+01 -6.2861777363422267e+00 -1.1639969469831564e+02 0 0 0
2170 87 2 0.0000000000000000e+00 -8.7456831894412772e+01 -1.4233926700661812e+01 -1.1316681052145904e+02 0 0 0
3157 127 3 0.0000000000000000e+00 -7.5534234949083142e+01 -1.0481922855225459e+01 -1.1440838185730902e+02 0 0 0
3156 127 4 0.0000000000000000e+00 -8.0667023365131215e+01 -4.3231840437953135e+00 -1.0862401939159723e+02 0 0 0
4452 179 4 0.0000000000000000e+00 -6.5570145086086328e+01 -1.2123300716474926e+01 -1.2006471365067529e+02 0 0 0
4453 179 4 0.0000000000000000e+00 -6.4151057611333030e+01 -1.5272001517421433e+01 -1.1071229694270770e+02 0 0 0
2070 83 2 0.0000000000000000e+00 -6.8956612888489715e+01 -4.5444947228969550e+00 -1.0831411768738309e+02 0 0 0
273 11 2 0.0000000000000000e+00 -5.5283949430434163e+01 -1.6986117354823399e+01 -1.2003378527307534e+02 0 0 0
4455 179 4 0.0000000000000000e+00 -4.6755350759992034e+01 -1.4954366096499975e+01 -1.1341817480387979e+02 0 0 0
4456 179 4 0.0000000000000000e+00 -3.9733824969098286e+01 -1.3157310389536510e+01 -1.2043179868324360e+02 0 0 0
1666 67 2 0.0000000000000000e+00 -3.1592205484173842e+01 -1.3990844936829754e+01 -1.1296077430048355e+02 0 0 0
1830 74 2 0.0000000000000000e+00 -2.8539947784780438e+01 -5.2814553006590197e+00 -1.1878259989331544e+02 0 0 0
1829 74 2 0.0000000000000000e+00 -1.8261423500720095e+01 -8.2627327411358991e+00 -1.1861713472166086e+02 0 0 0
1828 74 2 0.0000000000000000e+00 -8.5284476356668399e+00 -7.9858759907811869e+00 -1.1780166593699526e+02 0 0 0
2159 87 2 0.0000000000000000e+00 -1.0210041912618296e+01 -1.1717129039009752e+01 -1.0791419918833994e+02 0 0 0
1827 74 2 0.0000000000000000e+00 9.2191049810488135e-01 -1.1538034767638541e+01 -1.1961423970631174e+02 0 0 0
2059 83 2 0.0000000000000000e+00 -1.1612933208572623e+02 -3.8970680969304321e+00 -1.1566154902125311e+02 0 0 0
2060 83 2 0.0000000000000000e+00 -1.2606452490773890e+02 -1.3152511841616761e+00 -1.1484181924326234e+02 0 0 0
2061 83 2 0.0000000000000000e+00 -1.2517437806176645e+02 9.1707952718571111e+00 -1.1501741165345594e+02 0 0 0
1979 80 2 0.0000000000000000e+00 -1.0741006038133369e+02 5.6086977692508446e+00 -1.1961084485276129e+02 0 0 0
2173 87 2 0.0000000000000000e+00 -1.0136099953339185e+02 9.6724404727576285e+00 -1.1005397131086919e+02 0 0 0
2172 87 2 0.0000000000000000e+00 -1.0042482017148194e+02 6.9336508327574886e-01 -1.1439434356255941e+02 0 0 0
3159 127 4 0.0000000000000000e+00 -8.6856585405855185e+01 2.8069439700274827e+00 -1.1441446334582196e+02 0 0 0
3158 127 4 0.0000000000000000e+00 -7.9702072870779517e+01 -2.3111347936519988e+00 -1.1983434586733544e+02 0 0 0
2069 83 1 0.0000000000000000e+00 -6.7104244372516249e+01 -1.7260689645689087e+00 -1.1769699842063315e+02 0 0 0
1052 43 2 0.0000000000000000e+00 -6.7154854671169758e+01 7.5775665771633172e+00 -1.0797320857046424e+02 0 0 0
1053 43 2 0.0000000000000000e+00 -6.2752326146235788e+01 7.0131455584666131e+00 -1.1670603518340744e+02 0 0 0
3628 146 4 0.0000000000000000e+00 -5.1543045714097467e+01 4.9303263512552338e+00 -1.1703340539969555e+02 0 0 0
3178 128 4 0.0000000000000000e+00 -3.5006617458191222e+01 -6.2483963939173448e-01 -1.0913209359264009e+02 0 0 0
3179 128 4 0.0000000000000000e+00 -3.8847678279658410e+01 7.8798450272300871e+00 -1.1336292044670657e+02 0 0 0
4786 192 4 0.0000000000000000e+00 -2.1239422109627707e+01 1.7485102070907053e+00 -1.1398591607971234e+02 0 0 0
4785 192 4 0.0000000000000000e+00 -1.1878754763560265e+01 -1.4802080368987236e+00 -1.1127787644213406e+02 0 0 0
4784 192 4 0.0000000000000000e+00 -5.5097727297811030e+00 2.0706153465507269e+00 -1.1820323070120767e+02 0 0 0
2062 83 2 0.0000000000000000e+00 -1.1946049809695060e+02 1.6265090148192481e+01 -1.1850531042526896e+02 0 0 0
2063 83 1 0.0000000000000000e+00 -1.0955186560555056e+02 1.7221206437430808e+01 -1.1780146867477642e+02 0 0 0
4476 180 3 0.0000000000000000e+00 -1.0676027545237150e+02 2.0952079897290528e+01 -1.0738010283063008e+02 0 0 0
2064 83 2 0.0000000000000000e+00 -9.9936178916348283e+01 1.4551697431037647e+01 -1.1945433984594679e+02 0 0 0
4477 180 4 0.0000000000000000e+00 -9.7815062747884213e+01 2.2675092569594636e+01 -1.1170229280937714e+02 0 0 0
2228 90 2 0.0000000000000000e+00 -8.1315762603676106e+01 2.2985268343259648e+01 -1.1831324897491336e+02 0 0 0
2025 81 1 0.0000000000000000e+00 -6.6809583443428167e+01 1.7445681502611087e+01 -1.1784025291327065e+02 0 0 0
2995 120 4 0.0000000000000000e+00 -5.2536803757654930e+01 1.5111546504463114e+01 -1.1425193865008224e+02 0 0 0
3180 128 4 0.0000000000000000e+00 -3.8962363591558699e+01 1.3994894892616450e+01 -1.2105302803966346e+02 0 0 0
2994 120 3 0.0000000000000000e+00 -4.5290807874435608e+01 1.7991423134821183e+01 -1.0870738831677112e+02 0 0 0