LAMMPS data file via write_data, version 5 Jun 2019, timestep = 400000000

5000 atoms
4 atom types
5294 bonds
3 bond types
4600 angles
2 angle types

-2.5000000000000000e+02 2.5000000000000000e+02 xlo xhi
-2.5000000000000000e+02 2.5000000000000000e+02 ylo yhi
-2.5000000000000000e+02 2.5000000000000000e+02 zlo zhi

Masses

1 1000
2 1000
3 1000
4 1000

Pair Coeffs # lj/cut

1 0.3 10
2 0.3 10
3 0.3 10
4 0.3 10

Bond Coeffs # harmonic

1 3 10
2 3 10
3 3 11.22

Angle Coeffs # cosine

1 2
2 2

Atoms # full

3058 123 4 0.0000000000000000e+00 -5.4488074761822382e+01 -1.2587973436485482e+01 -1.9592546316515075e+02 0 0 0
3057 123 3 0.0000000000000000e+00 -5.0565449199440430e+01 -3.2449078440744485e+00 -1.9566934979416351e+02 0 0 0
3054 123 4 0.0000000000000000e+00 -5.5824746224816245e+01 1.8699809036104622e+01 -2.0142722410054736e+02 0 0 0
3060 123 4 0.0000000000000000e+00 -5.0663338994321265e+01 -2.7842337122321148e+01 -1.8573012533522649e+02 0 0 0
3059 123 4 0.0000000000000000e+00 -5.0526129541726974e+01 -2.0671255269265785e+01 -1.9202392219216608e+02 0 0 0
2238 90 1 0.0000000000000000e+00 -7.0328211524817277e+01 4.4618195599904622e+00 -1.8269082937019013e+02 0 0 0
2239 90 2 0.0000000000000000e+00 -6.4358900616131095e+01 -2.1188763583756898e+00 -1.8794470619116495e+02 0 0 0
2240 90 2 0.0000000000000000e+00 -5.5078551920820686e+01 -6.5672430496261489e+00 -1.8740750647008804e+02 0 0 0
2236 90 2 0.0000000000000000e+00 -8.2362722656364184e+01 1.6657607723895008e+01 -1.9228482291468424e+02 0 0 0
2237 90 2 0.0000000000000000e+00 -7.8073589153006125e+01 8.7979580216819926e+00 -1.8804444333161663e+02 0 0 0
2020 81 2 0.0000000000000000e+00 -6.7079597960057086e+01 1.6856158598742272e+01 -1.9233859109366938e+02 0 0 0
2019 81 1 0.0000000000000000e+00 -7.3448708541077167e+01 1.7461293037601205e+01 -1.8433961998691143e+02 0 0 0
2064 83 2 0.0000000000000000e+00 -8.7758707699210007e+01 -3.9333154526994797e+01 -1.7017320630180683e+02 0 0 0
3062 123 4 0.0000000000000000e+00 -6.2216483287213684e+01 -3.7237384889691334e+01 -1.7228815550264372e+02 0 0 0
4477 180 4 0.0000000000000000e+00 -9.7808990119349659e+01 -2.1793823758884120e+01 -1.7869650654493267e+02 0 0 0
4476 180 3 0.0000000000000000e+00 -9.9992650270133495e+01 -2.9158649447166784e+01 -1.7253539163954258e+02 0 0 0
2065 83 2 0.0000000000000000e+00 -7.9919546354534106e+01 -3.3271011361342147e+01 -1.7095075151342272e+02 0 0 0
3061 123 4 0.0000000000000000e+00 -5.5948102307039093e+01 -3.3886722421036509e+01 -1.7944016868601838e+02 0 0 0
4478 180 4 0.0000000000000000e+00 -9.6810596962522439e+01 -1.6584504311045542e+01 -1.6971388905257757e+02 0 0 0
4479 180 4 0.0000000000000000e+00 -8.6480450815233255e+01 -1.3498840727143785e+01 -1.6935523935842684e+02 0 0 0
3410 137 4 0.0000000000000000e+00 -7.0901852904860917e+01 -1.1050688128453888e+01 -1.7761939289010573e+02 0 0 0
4480 180 4 0.0000000000000000e+00 -7.7560838904045951e+01 -1.7293774424108946e+01 -1.6805918827876201e+02 0 0 0
3409 137 4 0.0000000000000000e+00 -6.0798797095440321e+01 -1.3636397294923986e+01 -1.7721443275358598e+02 0 0 0
1451 59 1 0.0000000000000000e+00 -5.1102093723594344e+01 -2.0626801083740094e+01 -1.7175854688047747e+02 0 0 0
3408 137 4 0.0000000000000000e+00 -5.2206835976525355e+01 -1.0883552542833684e+01 -1.7335242954127878e+02 0 0 0
3412 137 4 0.0000000000000000e+00 -7.9915497072789421e+01 4.6193811735313703e+00 -1.7585697156197241e+02 0 0 0
3411 137 4 0.0000000000000000e+00 -7.7502086789435893e+01 -3.7793322628507697e+00 -1.8036205692789676e+02 0 0 0
1051 43 1 0.0000000000000000e+00 -7.3156202616402481e+01 -2.1896686017210096e+00 -1.6901538064651459e+02 0 0 0
3000 120 3 0.0000000000000000e+00 -5.9487798235390663e+01 2.6167128211075528e+00 -1.7958320668609403e+02 0 0 0
1052 43 2 0.0000000000000000e+00 -6.2982502416595487e+01 -3.6207725449979106e-01 -1.7016145294564052e+02 0 0 0
3413 137 3 0.0000000000000000e+00 -7.8237440571665687e+01 1.4258370875562589e+01 -1.7500929664109682e+02 0 0 0
2999 120 4 0.0000000000000000e+00 -5.2334278219662693e+01 5.9533153033663178e+00 -1.7236747070073386e+02 0 0 0
4484 180 4 0.0000000000000000e+00 -6.3330026235015843e+01 1.2634222624098555e+01 -1.6774445641454403e+02 0 0 0
2063 83 1 0.0000000000000000e+00 -9.7267694282668614e+01 -3.8545573626056630e+01 -1.6687177607215034e+02 0 0 0
3063 123 3 0.0000000000000000e+00 -6.7675598615119910e+01 -4.1379489837594562e+01 -1.6501298145415885e+02 0 0 0
3064 123 4 0.0000000000000000e+00 -7.2924460444744540e+01 -3.9553787771757221e+01 -1.5674817150623019e+02 0 0 0
274 11 2 0.0000000000000000e+00 -5.4062114169120370e+01 -4.4879296141028355e+01 -1.6108422688444023e+02 0 0 0
275 11 1 0.0000000000000000e+00 -5.9767346887598372e+01 -3.7842855784242794e+01 -1.5764429123965832e+02 0 0 0
2062 83 2 0.0000000000000000e+00 -9.9785735707974396e+01 -3.1401970330058205e+01 -1.6074651795122656e+02 0 0 0
2066 83 2 0.0000000000000000e+00 -7.6157238153775751e+01 -2.7152587524354253e+01 -1.6419573247466610e+02 0 0 0
2067 83 2 0.0000000000000000e+00 -7.0480824411895796e+01 -2.8715310641822395e+01 -1.5600344277684746e+02 0 0 0
2250 90 1 0.0000000000000000e+00 -5.6529388114742645e+01 -2.6882258004471566e+01 -1.5430674575011057e+02 0 0 0
4481 180 4 0.0000000000000000e+00 -7.2669852681453861e+01 -1.1990233610746440e+01 -1.6118912257048839e+02 0 0 0
1452 59 2 0.0000000000000000e+00 -5.0510002830922602e+01 -1.9226562441444877e+01 -1.6237120327099555e+02 0 0 0
4482 180 3 0.0000000000000000e+00 -6.9963724860425501e+01 -2.3730831412351323e+00 -1.5849603096986718e+02 0 0 0
1053 43 2 0.0000000000000000e+00 -5.6389699407200453e+01 -5.0507863160068514e+00 -1.6450925459855702e+02 0 0 0
2175 87 1 0.0000000000000000e+00 -5.2967723557295976e+01 -5.1625079324723018e+00 -1.5449288314252317e+02 0 0 0
4483 180 4 0.0000000000000000e+00 -6.9885814296791580e+01 6.8685246924848782e+00 -1.6283028549764467e+02 0 0 0
3414 137 4 0.0000000000000000e+00 -7.8415571899607770e+01 1.6911630805372930e+01 -1.6491702076965788e+02 0 0 0
3349 134 4 0.0000000000000000e+00 -5.4242811396304461e+01 8.1589670780244177e+00 -1.5621717945489041e+02 0 0 0
1847 74 2 0.0000000000000000e+00 -5.5278032060644243e+01 -8.2700140305750281e+01 -1.4127305937773980e+02 0 0 0
1167 47 2 0.0000000000000000e+00 -5.3291794212303870e+01 -6.1538633413515150e+01 -1.4141952940412699e+02 0 0 0
3065 123 4 0.0000000000000000e+00 -6.8088798649871975e+01 -4.2818616205552800e+01 -1.4854628566107891e+02 0 0 0
2061 83 2 0.0000000000000000e+00 -9.8384654490337965e+01 -2.5279555610919161e+01 -1.5252372654231567e+02 0 0 0
2068 83 2 0.0000000000000000e+00 -6.5691701993422342e+01 -3.3114579593000222e+01 -1.4809090599002437e+02 0 0 0
3626 146 3 0.0000000000000000e+00 -6.4433383001264588e+01 -2.2590231326553308e+01 -1.4786949546853509e+02 0 0 0
4453 179 4 0.0000000000000000e+00 -5.4028795125333943e+01 -3.4142248307484977e+01 -1.4092593086018681e+02 0 0 0
577 24 2 0.0000000000000000e+00 -5.3210487413807627e+01 -2.2506327937226121e+01 -1.4486977411023648e+02 0 0 0
2060 83 2 0.0000000000000000e+00 -9.3848455098437356e+01 -1.6705620425528473e+01 -1.4947596601166708e+02 0 0 0
3627 146 4 0.0000000000000000e+00 -7.0887699778903041e+01 -1.7265307661339293e+01 -1.4120697377861310e+02 0 0 0
4750 190 3 0.0000000000000000e+00 -1.1266383882043036e+02 -1.7373240680963191e+00 -1.4441415584340288e+02 0 0 0
2058 83 2 0.0000000000000000e+00 -9.3966417670927342e+01 3.6531583252152693e+00 -1.4803481382220983e+02 0 0 0
2059 83 2 0.0000000000000000e+00 -9.2512208614480684e+01 -6.5681372630648918e+00 -1.5021084708943374e+02 0 0 0
2171 87 2 0.0000000000000000e+00 -8.5936290248036627e+01 2.5005903679126762e+00 -1.4049082033651996e+02 0 0 0
3629 146 4 0.0000000000000000e+00 -6.6144049885624867e+01 -5.0379288618691898e-02 -1.4428705531315171e+02 0 0 0
2172 87 2 0.0000000000000000e+00 -7.6845238116231798e+01 2.5185531756241222e+00 -1.4476972443501560e+02 0 0 0
2174 87 2 0.0000000000000000e+00 -6.1918065322772037e+01 -4.9197613367453097e-01 -1.5329806121013112e+02 0 0 0
4749 190 4 0.0000000000000000e+00 -1.1472625924603949e+02 7.8979649340307443e+00 -1.4552730584470240e+02 0 0 0
4747 190 4 0.0000000000000000e+00 -1.1355489778000728e+02 1.7876974678083556e+01 -1.5187416627042697e+02 0 0 0
4748 190 4 0.0000000000000000e+00 -1.0673266687162190e+02 1.3468435420696942e+01 -1.4604862117155105e+02 0 0 0
2057 83 1 0.0000000000000000e+00 -9.1752014050332477e+01 1.3187529971431493e+01 -1.4602317227166944e+02 0 0 0
2056 83 2 0.0000000000000000e+00 -8.2522148259999838e+01 1.7210212162963344e+01 -1.4178014126387075e+02 0 0 0
2173 87 2 0.0000000000000000e+00 -6.9976254663686547e+01 5.6520487467023246e+00 -1.5134639375260440e+02 0 0 0
2054 83 2 0.0000000000000000e+00 -6.9390456608916907e+01 1.4424198978110452e+01 -1.4014241344888637e+02 0 0 0
3348 134 4 0.0000000000000000e+00 -5.5075002134467731e+01 1.7455251297853579e+01 -1.5081933096902671e+02 0 0 0
1846 74 2 0.0000000000000000e+00 -5.6617038855685216e+01 -7.4841470226339766e+01 -1.3464884010314566e+02 0 0 0
1845 74 2 0.0000000000000000e+00 -5.8926133076187625e+01 -6.7022639185651855e+01 -1.2876257041564344e+02 0 0 0
1168 47 2 0.0000000000000000e+00 -5.4502679433920186e+01 -5.7506090536788228e+01 -1.3258222182307256e+02 0 0 0
3066 123 4 0.0000000000000000e+00 -6.5341849435693106e+01 -4.4058333766112455e+01 -1.3950895067652183e+02 0 0 0
3067 123 4 0.0000000000000000e+00 -6.9523066119570814e+01 -4.0799979080535557e+01 -1.3018208156712575e+02 0 0 0
2724 109 4 0.0000000000000000e+00 -5.2763927489159180e+01 -4.7446800171526903e+01 -1.3164083605845607e+02 0 0 0
4452 179 4 0.0000000000000000e+00 -6.0124199630308247e+01 -3.6179093248611693e+01 -1.3288613349187000e+02 0 0 0
2069 83 1 0.0000000000000000e+00 -6.8606837878061455e+01 -3.2516331968672368e+01 -1.3850592944208736e+02 0 0 0
4451 179 3 0.0000000000000000e+00 -6.6192007197750016e+01 -3.0221573386454320e+01 -1.2795574730073032e+02 0 0 0
2070 83 2 0.0000000000000000e+00 -7.6656818905513461e+01 -2.7033588029398530e+01 -1.3490026877950038e+02 0 0 0
1840 74 2 0.0000000000000000e+00 -5.1210385862752304e+01 -3.0197234662014434e+01 -1.2763679428926368e+02 0 0 0
1979 80 2 0.0000000000000000e+00 -1.2355192584301875e+02 -2.0111520351596688e+01 -1.2715956448184890e+02 0 0 0
1978 80 2 0.0000000000000000e+00 -1.1386001515914211e+02 -1.7724754013506878e+01 -1.2719298889361536e+02 0 0 0
1977 80 2 0.0000000000000000e+00 -1.0616137012373179e+02 -1.3742443327167260e+01 -1.3212081915169188e+02 0 0 0
2071 83 2 0.0000000000000000e+00 -7.8436961848841321e+01 -1.6727387485305428e+01 -1.3462577495755380e+02 0 0 0
578 24 2 0.0000000000000000e+00 -5.8096592648643330e+01 -1.9851962071601889e+01 -1.3682828348866482e+02 0 0 0
579 24 2 0.0000000000000000e+00 -6.2134599250703339e+01 -1.8095210576002252e+01 -1.2749539167586902e+02 0 0 0
3176 128 3 0.0000000000000000e+00 -5.1402536059954180e+01 -9.6654143862238548e+00 -1.3558487300674048e+02 0 0 0
2226 90 1 0.0000000000000000e+00 -1.2487638822773884e+02 5.3082303109026929e+00 -1.3717687721865747e+02 0 0 0
2882 116 3 0.0000000000000000e+00 -1.1677971394218334e+02 4.3045702535861124e-01 -1.3239436089949587e+02 0 0 0
1976 80 1 0.0000000000000000e+00 -1.0477186079683621e+02 -5.0188908463368191e+00 -1.3747515774264630e+02 0 0 0
2072 83 2 0.0000000000000000e+00 -8.1129385304772725e+01 -7.3269270024037949e+00 -1.3615346727291035e+02 0 0 0
2170 87 2 0.0000000000000000e+00 -9.2736772888667673e+01 -1.6600135136450298e+00 -1.3388281241755391e+02 0 0 0
2073 83 2 0.0000000000000000e+00 -8.5017095550827435e+01 -3.9792141908610819e+00 -1.2713878591598503e+02 0 0 0
3628 146 4 0.0000000000000000e+00 -7.0662262109364519e+01 -7.6319447327472369e+00 -1.3894020045267828e+02 0 0 0
2052 83 2 0.0000000000000000e+00 -7.7076454758947165e+01 4.4153852108119249e+00 -1.2684759950233841e+02 0 0 0
2166 87 2 0.0000000000000000e+00 -7.0224502759668013e+01 -5.6121079492728985e+00 -1.2674121037351955e+02 0 0 0
2164 87 2 0.0000000000000000e+00 -5.4083605710454421e+01 -2.2360622169248809e-01 -1.3709949572938521e+02 0 0 0
2165 87 2 0.0000000000000000e+00 -6.2535992397162310e+01 -1.1557734475618573e+00 -1.3129690967076431e+02 0 0 0
741 30 2 0.0000000000000000e+00 -1.2408348145005067e+02 1.8331259474808359e+01 -1.3020153060053283e+02 0 0 0
2883 116 4 0.0000000000000000e+00 -1.0986450790539726e+02 6.3264379241795758e+00 -1.3602805115183776e+02 0 0 0
2227 90 2 0.0000000000000000e+00 -1.1802453428933430e+02 1.2190203613771722e+01 -1.3428270308817068e+02 0 0 0
2701 109 3 0.0000000000000000e+00 -9.9070027279519167e+01 8.0235916785006953e+00 -1.3866695228798477e+02 0 0 0
2884 116 4 0.0000000000000000e+00 -1.0215860185243054e+02 7.5987664573076161e+00 -1.2928235924455294e+02 0 0 0
2885 116 4 0.0000000000000000e+00 -9.7567908112773949e+01 1.6613319865304810e+01 -1.2842081815137396e+02 0 0 0
2702 109 4 0.0000000000000000e+00 -9.0844877620085612e+01 8.5989847453577397e+00 -1.3251345495185330e+02 0 0 0
2053 83 2 0.0000000000000000e+00 -7.0755251113313449e+01 8.1841902676224052e+00 -1.3293137054347673e+02 0 0 0
3630 146 4 0.0000000000000000e+00 -6.1523436273592871e+01 6.8526501038187178e+00 -1.3928685486480688e+02 0 0 0
3631 146 4 0.0000000000000000e+00 -6.2162037822360872e+01 1.3098902862076491e+01 -1.3174398154601192e+02 0 0 0
2993 120 4 0.0000000000000000e+00 -5.2248758705112799e+01 1.4195466276724245e+01 -1.3890677108709539e+02 0 0 0
2992 120 4 0.0000000000000000e+00 -5.0615881569155540e+01 1.6394016591474145e+01 -1.2863888492985959e+02 0 0 0
266 11 2 0.0000000000000000e+00 -5.0317764423785064e+01 -8.1039592508389987e+01 -1.1981244299134966e+02 0 0 0
4200 168 3 0.0000000000000000e+00 -1.0290940148398178e+02 -6.4144560896927530e+01 -1.1213294826601350e+02 0 0 0
4153 167 4 0.0000000000000000e+00 -8.3719171344533848e+01 -7.0569352948437285e+01 -1.1441292189400076e+02 0 0 0
4152 167 4 0.0000000000000000e+00 -7.6689844085140763e+01 -6.7068476113495649e+01 -1.2130883633528222e+02 0 0 0
264 11 2 0.0000000000000000e+00 -5.0772025084359690e+01 -6.2952191750941637e+01 -1.1423377373903253e+02 0 0 0
3175 127 3 0.0000000000000000e+00 -8.3522767291651277e+01 -6.0095865070675607e+01 -1.1483949436444797e+02 0 0 0
2388 96 1 0.0000000000000000e+00 -7.7979185994559032e+01 -5.0091033076839757e+01 -1.1537714662149402e+02 0 0 0
4151 167 3 0.0000000000000000e+00 -7.1794094242724185e+01 -5.8676494613791974e+01 -1.1876689846418785e+02 0 0 0
1169 47 1 0.0000000000000000e+00 -5.0707727625365472e+01 -5.4786883689581735e+01 -1.2368994899253785e+02 0 0 0
1843 74 2 0.0000000000000000e+00 -6.3859957908097016e+01 -5.1596564788405892e+01 -1.1680590631949572e+02 0 0 0
1844 74 1 0.0000000000000000e+00 -6.0984068819419193e+01 -6.1011673970089142e+01 -1.2140283431660994e+02 0 0 0
3075 123 3 0.0000000000000000e+00 -1.2847628395391956e+02 -4.1345316097034498e+01 -1.2129373384561463e+02 0 0 0
3074 123 4 0.0000000000000000e+00 -1.2128510665201840e+02 -3.4795944218032766e+01 -1.1840799145231802e+02 0 0 0
2391 96 2 0.0000000000000000e+00 -9.6717886590175070e+01 -4.2839905784830300e+01 -1.1427602040107027e+02 0 0 0
2390 96 2 0.0000000000000000e+00 -9.1389469262083850e+01 -4.0699923593103279e+01 -1.2240582506781949e+02 0 0 0
2389 96 2 0.0000000000000000e+00 -8.2471731686155024e+01 -4.1682472197645552e+01 -1.1766744504603841e+02 0 0 0
3068 123 4 0.0000000000000000e+00 -7.2915332801185372e+01 -3.5742487792631728e+01 -1.2222791538562534e+02 0 0 0
2725 109 3 0.0000000000000000e+00 -5.8379539357270268e+01 -4.6571927112344632e+01 -1.2402386533740803e+02 0 0 0
1842 74 2 0.0000000000000000e+00 -6.3455921354552252e+01 -4.1551038362828223e+01 -1.1728514205820899e+02 0 0 0
1841 74 2 0.0000000000000000e+00 -5.6650775832615246e+01 -3.6672638298694530e+01 -1.2303045593359624e+02 0 0 0
1981 80 2 0.0000000000000000e+00 -1.3771542152399368e+02 -2.5052695616590452e+01 -1.2564117877253210e+02 0 0 0
1982 80 1 0.0000000000000000e+00 -1.3423677604447647e+02 -3.1921334549162385e+01 -1.1892292941225340e+02 0 0 0
3073 123 4 0.0000000000000000e+00 -1.1366808662189547e+02 -2.9218224647376555e+01 -1.1473389844908708e+02 0 0 0
3071 123 4 0.0000000000000000e+00 -9.7873142965862854e+01 -2.3225173470347428e+01 -1.1854590438602155e+02 0 0 0
3070 123 4 0.0000000000000000e+00 -8.9241793886298822e+01 -2.8471220741146947e+01 -1.1544050964436789e+02 0 0 0
3069 123 3 0.0000000000000000e+00 -7.9136751879109724e+01 -3.0054871455973927e+01 -1.1672148623077972e+02 0 0 0
4878 196 4 0.0000000000000000e+00 -6.6660376278345964e+01 -3.0769597741380515e+01 -1.1231220446062211e+02 0 0 0
4879 196 4 0.0000000000000000e+00 -6.1560799105464667e+01 -2.5791401820942362e+01 -1.1937412207575227e+02 0 0 0
4880 196 4 0.0000000000000000e+00 -5.2784237536550059e+01 -2.2769230277673525e+01 -1.2204625411744496e+02 0 0 0
1980 80 2 0.0000000000000000e+00 -1.3248801821471679e+02 -1.6318460768027307e+01 -1.2473648678049989e+02 0 0 0
3167 127 4 0.0000000000000000e+00 -1.0905144895424880e+02 -1.1040848367843518e+01 -1.1637289306824434e+02 0 0 0
3168 127 4 0.0000000000000000e+00 -1.1563749846064884e+02 -1.8406673542953918e+01 -1.1337925306305880e+02 0 0 0
2168 87 2 0.0000000000000000e+00 -8.8101530436202125e+01 -8.3564403883686378e+00 -1.1774711147788037e+02 0 0 0
580 24 2 0.0000000000000000e+00 -6.5649890451536990e+01 -1.4153393538915250e+01 -1.1954120092809420e+02 0 0 0
581 24 2 0.0000000000000000e+00 -7.3272089649404236e+01 -1.8432090686228573e+01 -1.1412156240446089e+02 0 0 0
2167 87 2 0.0000000000000000e+00 -7.7454831527175173e+01 -7.8595460493581317e+00 -1.1915764670968456e+02 0 0 0
2881 116 4 0.0000000000000000e+00 -1.1899062728734066e+02 -5.8183200741108889e+00 -1.2465971016635834e+02 0 0 0
3158 127 4 0.0000000000000000e+00 -1.0911797799893395e+02 -1.4093391400672388e+00 -1.2519933111818665e+02 0 0 0
2880 116 4 0.0000000000000000e+00 -1.2062583225033416e+02 -5.4031379834281985e+00 -1.1500121889236387e+02 0 0 0
2169 87 1 0.0000000000000000e+00 -9.4361123151944923e+01 -4.3901332726713695e+00 -1.2439368990372645e+02 0 0 0
3157 127 3 0.0000000000000000e+00 -1.0195636017023131e+02 1.8637659416334058e+00 -1.1847796906279784e+02 0 0 0
2074 83 2 0.0000000000000000e+00 -8.7754353047371964e+01 1.5034620074425467e+00 -1.1882153727005350e+02 0 0 0
499 20 2 0.0000000000000000e+00 -5.9724417070991123e+01 2.9299204806508903e+00 -1.1994364100565085e+02 0 0 0
498 20 2 0.0000000000000000e+00 -5.3316084040053248e+01 -3.7097595078171595e+00 -1.1546427703379528e+02 0 0 0
3159 127 4 0.0000000000000000e+00 -1.1081856357529865e+02 8.8775295529656066e+00 -1.2523317970732246e+02 0 0 0
740 30 2 0.0000000000000000e+00 -1.2033013078558416e+02 1.0270028535452242e+01 -1.2453699181391144e+02 0 0 0
739 30 2 0.0000000000000000e+00 -1.1784692996209117e+02 5.9094531902373042e+00 -1.1552587346490699e+02 0 0 0
3160 127 4 0.0000000000000000e+00 -1.0532246427378041e+02 1.3468256668592815e+01 -1.1793473725920563e+02 0 0 0
2051 83 1 0.0000000000000000e+00 -7.9624907920635565e+01 6.0696404931969701e+00 -1.1699331508979610e+02 0 0 0
2703 109 4 0.0000000000000000e+00 -8.7853451074051648e+01 1.2207527479868236e+01 -1.2361807485141077e+02 0 0 0
2704 109 4 0.0000000000000000e+00 -8.4158740783712332e+01 1.6474467753339077e+01 -1.1476408230822494e+02 0 0 0
500 20 1 0.0000000000000000e+00 -6.8648687509318890e+01 6.9603383803360099e+00 -1.2080978593098573e+02 0 0 0
3632 146 3 0.0000000000000000e+00 -6.0771821878066596e+01 1.4653748446814189e+01 -1.2221058563041365e+02 0 0 0
4156 167 4 0.0000000000000000e+00 -1.0101445729412825e+02 -8.7563640323318324e+01 -1.0087404151516331e+02 0 0 0
4155 167 4 0.0000000000000000e+00 -9.4485770423732347e+01 -8.0493363058678227e+01 -1.0473460752694734e+02 0 0 0
1989 80 2 0.0000000000000000e+00 -1.0725410750521281e+02 -7.3485056108941379e+01 -1.0629372723057824e+02 0 0 0
1988 80 1 0.0000000000000000e+00 -1.1039668883961110e+02 -6.4385942826370652e+01 -1.0331243269875809e+02 0 0 0
4199 168 4 0.0000000000000000e+00 -9.9454412002706874e+01 -6.5851348106483101e+01 -1.0307926221624193e+02 0 0 0
4154 167 4 0.0000000000000000e+00 -8.9094320206356585e+01 -7.2548455653808503e+01 -1.0689493715582557e+02 0 0 0
262 11 2 0.0000000000000000e+00 -6.8092631096122076e+01 -6.6682272173711269e+01 -1.0506134802630235e+02 0 0 0
261 11 2 0.0000000000000000e+00 -7.2564622607860215e+01 -7.2772023167716512e+01 -9.9102585941420145e+01 0 0 0
263 11 1 0.0000000000000000e+00 -5.9698641945175297e+01 -6.1881470068127584e+01 -1.0941061621414784e+02 0 0 0
3082 124 3 0.0000000000000000e+00 -5.9630898148647880e+01 -6.3402266715317730e+01 -9.8505124041384605e+01 0 0 0
1987 80 2 0.0000000000000000e+00 -1.1171557255343899e+02 -5.4524687944160057e+01 -1.0418107095967392e+02 0 0 0
3173 127 4 0.0000000000000000e+00 -9.4375870573996323e+01 -5.4747999273071976e+01 -1.0021360691535091e+02 0 0 0
3172 127 4 0.0000000000000000e+00 -1.0109095118154568e+02 -4.9488094164355104e+01 -1.0613782321996011e+02 0 0 0
3174 127 4 0.0000000000000000e+00 -8.8523800390143109e+01 -6.0604612156632101e+01 -1.0603664967036701e+02 0 0 0
2387 96 2 0.0000000000000000e+00 -7.9222310117253656e+01 -4.9784043953738937e+01 -1.0483350267966638e+02 0 0 0
2386 96 2 0.0000000000000000e+00 -7.5508743817460129e+01 -5.6945769949784086e+01 -9.9499976916948555e+01 0 0 0
1670 67 2 0.0000000000000000e+00 -5.0338487430228440e+01 -5.0101083887636783e+01 -1.0422136405924486e+02 0 0 0
3083 124 4 0.0000000000000000e+00 -5.1574401869341166e+01 -6.0504218149439303e+01 -1.0324658016062493e+02 0 0 0
1983 80 2 0.0000000000000000e+00 -1.3641877845655117e+02 -3.7738447663284390e+01 -1.1036195602748677e+02 0 0 0
1984 80 2 0.0000000000000000e+00 -1.3161029500777417e+02 -4.1178343185438479e+01 -1.0233481125160920e+02 0 0 0
3171 127 4 0.0000000000000000e+00 -1.0931360006173988e+02 -4.3534867004255048e+01 -1.0684606643899940e+02 0 0 0
3848 154 4 0.0000000000000000e+00 -1.1954539168941029e+02 -4.0066169932053946e+01 -9.9572790368577230e+01 0 0 0
2392 96 2 0.0000000000000000e+00 -1.0088479786591513e+02 -3.8161505768321902e+01 -1.0565845067129244e+02 0 0 0
4192 168 4 0.0000000000000000e+00 -8.2533786054805688e+01 -3.8198090557847564e+01 -1.0818295090461149e+02 0 0 0
4191 168 4 0.0000000000000000e+00 -8.9397552161532360e+01 -4.0636187340277466e+01 -1.0147192045941776e+02 0 0 0
4877 196 4 0.0000000000000000e+00 -6.4484756425739988e+01 -3.9532618531811345e+01 -1.0800956531342035e+02 0 0 0
1671 67 2 0.0000000000000000e+00 -5.4049203672598743e+01 -4.3634881609634732e+01 -1.1143296696673917e+02 0 0 0
4876 196 3 0.0000000000000000e+00 -6.0156853786626904e+01 -4.6742924132518873e+01 -1.0251463288470356e+02 0 0 0
2718 109 4 0.0000000000000000e+00 -5.0244094137532599e+01 -4.0574724253575575e+01 -1.0106010164217899e+02 0 0 0
3846 154 4 0.0000000000000000e+00 -1.2619150464197135e+02 -2.5394221713368228e+01 -1.0928879221292573e+02 0 0 0
3847 154 4 0.0000000000000000e+00 -1.2172174461775752e+02 -3.1390554312775333e+01 -1.0301606163393750e+02 0 0 0
3170 127 4 0.0000000000000000e+00 -1.0991208635166220e+02 -3.3092933272746329e+01 -1.0525914118020731e+02 0 0 0
3169 127 3 0.0000000000000000e+00 -1.1293952760045188e+02 -2.3688070551776768e+01 -1.0581653473034541e+02 0 0 0
3072 123 4 0.0000000000000000e+00 -1.0510364476287883e+02 -2.4957025069600931e+01 -1.1165439430887206e+02 0 0 0
4193 168 4 0.0000000000000000e+00 -7.5226601345707095e+01 -3.3837333745895791e+01 -1.0270787330078768e+02 0 0 0
2717 109 4 0.0000000000000000e+00 -5.7904688954756551e+01 -3.4098141063365404e+01 -9.9549626031029078e+01 0 0 0
2716 109 4 0.0000000000000000e+00 -5.8771621491664611e+01 -2.5034714673231008e+01 -1.0494069892528675e+02 0 0 0
3845 154 4 0.0000000000000000e+00 -1.2371707221247725e+02 -1.5912918182079183e+01 -1.0676254268352199e+02 0 0 0
3166 127 4 0.0000000000000000e+00 -1.0249351650459634e+02 -1.4131156432022861e+01 -1.0912076244328775e+02 0 0 0
3165 127 4 0.0000000000000000e+00 -9.4149267579585128e+01 -8.1031948414695716e+00 -1.0744791593196774e+02 0 0 0
582 24 1 0.0000000000000000e+00 -8.2872788282235462e+01 -2.0717284514994873e+01 -1.1151767033417796e+02 0 0 0
583 24 2 0.0000000000000000e+00 -9.1193718208198064e+01 -2.0111523381892255e+01 -1.0513969760408371e+02 0 0 0
2715 109 4 0.0000000000000000e+00 -6.2571205167900743e+01 -1.5133683237180341e+01 -1.0628665677342150e+02 0 0 0
2380 96 2 0.0000000000000000e+00 -5.2341307033445489e+01 -1.9864049175836318e+01 -9.8987838034718223e+01 0 0 0
3844 154 3 0.0000000000000000e+00 -1.2629557434361794e+02 -7.7070186769183318e+00 -1.0131097222394352e+02 0 0 0
586 24 2 0.0000000000000000e+00 -1.1058572802961288e+02 -6.4390613960255898e+00 -1.0158712909301086e+02 0 0 0
2879 116 4 0.0000000000000000e+00 -1.2115678004509543e+02 1.0173680565920995e+00 -1.0711544565846992e+02 0 0 0
2878 116 4 0.0000000000000000e+00 -1.1417432666522106e+02 3.4582816002458663e+00 -1.0044973953347356e+02 0 0 0
2075 83 1 0.0000000000000000e+00 -9.3759981973071220e+01 4.8642264305352709e+00 -1.1136728966814169e+02 0 0 0
3156 127 4 0.0000000000000000e+00 -1.0325151844454182e+02 2.9176413649983615e+00 -1.0815451046551043e+02 0 0 0
3155 127 4 0.0000000000000000e+00 -1.0138563756860363e+02 5.2808681347175277e+00 -9.9253129780129754e+01 0 0 0
585 24 2 0.0000000000000000e+00 -1.0101043948046612e+02 -7.7193902503774599e+00 -9.9459750681512588e+01 0 0 0
3164 127 4 0.0000000000000000e+00 -8.6633185269826541e+01 -2.2652034265402223e+00 -1.0437796329945996e+02 0 0 0
2714 109 4 0.0000000000000000e+00 -6.7038750693282751e+01 -6.4246620656384898e+00 -1.0833637798889066e+02 0 0 0
2713 109 3 0.0000000000000000e+00 -7.4383179510379179e+01 9.5210080224090265e-01 -1.0896314693930992e+02 0 0 0
4518 181 4 0.0000000000000000e+00 -6.6719144986465579e+01 3.2468533492366762e+00 -1.0177848291786400e+02 0 0 0
76 4 1 0.0000000000000000e+00 -5.7495772754777811e+01 1.4391863092517490e+00 -1.0332004508533537e+02 0 0 0
3525 141 3 0.0000000000000000e+00 -1.2761553646935523e+02 1.5874629850770800e+01 -1.0907496597181743e+02 0 0 0
738 30 1 0.0000000000000000e+00 -1.1737432114843647e+02 1.2500104624931728e+01 -1.0717407856258106e+02 0 0 0
3162 127 4 0.0000000000000000e+00 -9.5848471689253699e+01 1.3064928305610479e+01 -1.0477824742041669e+02 0 0 0
3163 127 3 0.0000000000000000e+00 -8.8681362751113042e+01 6.8664353204560173e+00 -1.0164048777580734e+02 0 0 0
2712 109 4 0.0000000000000000e+00 -7.6842723953908447e+01 7.6441502987698264e+00 -1.0230653335307159e+02 0 0 0
2711 109 4 0.0000000000000000e+00 -7.4747055400657871e+01 1.6855560315837167e+01 -9.9791508408913472e+01 0 0 0
4519 181 3 0.0000000000000000e+00 -6.4186870373248752e+01 6.7710230131977056e+00 -1.1080851732260682e+02 0 0 0
4520 181 4 0.0000000000000000e+00 -6.3758748578840233e+01 1.6543793022933592e+01 -1.1131856508580536e+02 0 0 0
3915 157 4 0.0000000000000000e+00 -5.4952937608292594e+01 1.0228248131146300e+01 -9.9429414700954482e+01 0 0 0
4157 167 3 0.0000000000000000e+00 -1.0038303671331767e+02 -9.5696714119090331e+01 -9.4362700891132135e+01 0 0 0
4158 167 4 0.0000000000000000e+00 -9.1932667688972003e+01 -1.0074666070833852e+02 -9.1934902299786799e+01 0 0 0
2400 96 1 0.0000000000000000e+00 -9.0793192076826003e+01 -9.0438276582791062e+01 -9.2569787715239670e+01 0 0 0
1990 80 2 0.0000000000000000e+00 -1.0184955716559722e+02 -7.6602475385994822e+01 -9.8035885339244189e+01 0 0 0
2399 96 2 0.0000000000000000e+00 -9.6955919354107849e+01 -8.2549245929980756e+01 -8.9456052436931145e+01 0 0 0
2398 96 2 0.0000000000000000e+00 -1.0392634250105512e+02 -7.5479708130305511e+01 -8.6335044660307361e+01 0 0 0
260 11 2 0.0000000000000000e+00 -7.7864788309204570e+01 -7.8671237112420371e+01 -9.3619294109911564e+01 0 0 0
4198 168 4 0.0000000000000000e+00 -1.0445100057027432e+02 -6.1645318701489707e+01 -9.4279291958403846e+01 0 0 0
1991 80 2 0.0000000000000000e+00 -9.2400608281017654e+01 -7.4345040993556594e+01 -9.5488767467034862e+01 0 0 0
1992 80 2 0.0000000000000000e+00 -8.8595575282311046e+01 -6.5197973875730852e+01 -9.4203749462839752e+01 0 0 0
3081 124 4 0.0000000000000000e+00 -6.8050780722855961e+01 -6.4176026625862363e+01 -9.3149211695895389e+01 0 0 0
259 11 2 0.0000000000000000e+00 -7.6803545648611319e+01 -7.2554135728151294e+01 -8.5496871740179529e+01 0 0 0
4385 176 4 0.0000000000000000e+00 -5.1340202117070753e+01 -6.3120086843286387e+01 -8.6522588703404963e+01 0 0 0
1986 80 2 0.0000000000000000e+00 -1.1848443691783285e+02 -5.0508967560871547e+01 -9.7620552623873081e+01 0 0 0
4197 168 4 0.0000000000000000e+00 -1.0135165427216164e+02 -5.4723293912827764e+01 -8.7171039139206400e+01 0 0 0
1993 80 2 0.0000000000000000e+00 -8.4683585670068851e+01 -5.5581088299813239e+01 -9.3864293395829094e+01 0 0 0
1994 80 1 0.0000000000000000e+00 -7.6402278962686168e+01 -5.0048721190616604e+01 -9.2233029797734147e+01 0 0 0
3080 124 4 0.0000000000000000e+00 -7.5922470473554498e+01 -5.9074771799811664e+01 -8.8799745031038114e+01 0 0 0
2385 96 2 0.0000000000000000e+00 -6.7329628863504780e+01 -5.5139257732612606e+01 -9.3793926973279696e+01 0 0 0
1669 67 1 0.0000000000000000e+00 -5.4093013410680655e+01 -5.1651345787543754e+01 -9.5220181540842262e+01 0 0 0
4384 176 4 0.0000000000000000e+00 -6.0883660545650201e+01 -6.1508981819236830e+01 -8.5264881565959200e+01 0 0 0
1985 80 2 0.0000000000000000e+00 -1.2834986311813415e+02 -4.8003822672309930e+01 -9.5638758927674573e+01 0 0 0
3849 154 4 0.0000000000000000e+00 -1.2066695006114462e+02 -3.7869396454403855e+01 -8.9916199190360800e+01 0 0 0
2394 96 1 0.0000000000000000e+00 -1.0840016951533160e+02 -4.2906100119208475e+01 -8.8270218945310091e+01 0 0 0
4196 168 4 0.0000000000000000e+00 -9.4746003073207092e+01 -4.7189157041237692e+01 -8.8429238736016273e+01 0 0 0
2393 96 2 0.0000000000000000e+00 -1.0443571269829513e+02 -4.2732880366874163e+01 -9.7548329675103645e+01 0 0 0
4190 168 4 0.0000000000000000e+00 -9.5495156170848958e+01 -3.8538898959290300e+01 -9.3618904966030513e+01 0 0 0
4189 168 4 0.0000000000000000e+00 -9.9348554493986413e+01 -3.6994005022481495e+01 -8.4536199159576100e+01 0 0 0
4194 168 3 0.0000000000000000e+00 -7.8606962740918817e+01 -3.9880904485367282e+01 -9.4937082081968526e+01 0 0 0
4195 168 4 0.0000000000000000e+00 -8.6693229625596643e+01 -4.1964090772177393e+01 -8.9461081251716536e+01 0 0 0