LAMMPS data file via write_data, version 5 Jun 2019, timestep = 320000000

5000 atoms
4 atom types
5296 bonds
3 bond types
4600 angles
2 angle types

-2.5000000000000000e+02 2.5000000000000000e+02 xlo xhi
-2.5000000000000000e+02 2.5000000000000000e+02 ylo yhi
-2.5000000000000000e+02 2.5000000000000000e+02 zlo zhi

Masses

1 1000
2 1000
3 1000
4 1000

Pair Coeffs # lj/cut

1 0.3 10
2 0.3 10
3 0.3 10
4 0.3 10

Bond Coeffs # harmonic

1 3 10
2 3 10
3 3 11.22

Angle Coeffs # cosine

1 2
2 2

Atoms # full

57 3 1 0.0000000000000000e+00 4.0703877541000626e+00 -8.3824095345049983e+01 -1.8584904375341381e+02 0 0 0
58 3 2 0.0000000000000000e+00 -8.9084179837661182e-01 -7.7930463793326567e+01 -1.9213860974123298e+02 0 0 0
2776 112 3 0.0000000000000000e+00 1.3664581137070297e+01 -8.7068949460745984e+01 -1.8072840473766286e+02 0 0 0
59 3 2 0.0000000000000000e+00 -4.8500723765336290e-01 -6.9200707872870495e+01 -1.8741254935583612e+02 0 0 0
60 3 2 0.0000000000000000e+00 6.4844124702571522e+00 -6.3167700459663834e+01 -1.8492308023918403e+02 0 0 0
61 3 2 0.0000000000000000e+00 1.3469249564099270e+01 -5.8058385525440400e+01 -1.7953111574195140e+02 0 0 0
3203 129 4 0.0000000000000000e+00 2.3237713583564620e+01 -2.1784376746556259e+01 -1.7977900085131301e+02 0 0 0
3059 123 4 0.0000000000000000e+00 -7.5922456667832598e+00 1.6364838683065322e+01 -1.7912190202199130e+02 0 0 0
56 3 2 0.0000000000000000e+00 5.4970761748906591e+00 -8.3384329206263573e+01 -1.7570658235303299e+02 0 0 0
55 3 2 0.0000000000000000e+00 2.3378745007517598e+00 -7.7810121585345314e+01 -1.6847029249291251e+02 0 0 0
2777 112 4 0.0000000000000000e+00 2.0901944960510860e+01 -8.1337799847257529e+01 -1.7713838791781581e+02 0 0 0
2779 112 4 0.0000000000000000e+00 2.0437737397954791e+01 -6.9440790599026926e+01 -1.6546450811485278e+02 0 0 0
62 3 2 0.0000000000000000e+00 2.2255494097081570e+01 -5.9233310754999287e+01 -1.7448120468484311e+02 0 0 0
1452 59 2 0.0000000000000000e+00 1.1572630010279093e+01 -2.7393045035761862e+01 -1.6823846842393888e+02 0 0 0
3206 129 4 0.0000000000000000e+00 6.3198864179832093e+00 -1.0561118608645156e+01 -1.7083029510461728e+02 0 0 0
1453 59 2 0.0000000000000000e+00 4.9045595138377012e+00 -1.9510777260918179e+01 -1.6493535113852170e+02 0 0 0
3205 129 4 0.0000000000000000e+00 1.5890647463620343e+01 -1.4347346205911546e+01 -1.6752361402822353e+02 0 0 0
3204 129 4 0.0000000000000000e+00 2.1969247091632624e+01 -1.2449279966841699e+01 -1.7597413957423510e+02 0 0 0
3061 123 4 0.0000000000000000e+00 -8.1576262854334338e+00 -2.0114066672140338e+00 -1.7346837183799312e+02 0 0 0
3207 129 3 0.0000000000000000e+00 1.5807608878435913e+00 -2.5431904830698238e+00 -1.6770023205595723e+02 0 0 0
401 17 1 0.0000000000000000e+00 -3.4674387719070587e+01 1.6567865537778022e+01 -1.7065243920250916e+02 0 0 0
2242 90 2 0.0000000000000000e+00 -1.8130588130342726e+01 1.8216863624590108e+01 -1.6575020427195255e+02 0 0 0
3060 123 4 0.0000000000000000e+00 -7.5646425194850959e+00 8.5571112732809720e+00 -1.7306813279321199e+02 0 0 0
3208 129 4 0.0000000000000000e+00 4.7669317513575660e+00 6.8405304179786635e+00 -1.6818645637139613e+02 0 0 0
54 3 2 0.0000000000000000e+00 1.2509001713351023e-01 -7.0112175163427423e+01 -1.6132611261306130e+02 0 0 0
53 3 2 0.0000000000000000e+00 4.8365450250360107e+00 -6.3708283814228842e+01 -1.5467050006336945e+02 0 0 0
2780 112 4 0.0000000000000000e+00 1.6559496179637861e+01 -6.2287859300155908e+01 -1.5980509261693962e+02 0 0 0
2781 112 4 0.0000000000000000e+00 1.7195075769020370e+01 -5.2601247485380419e+01 -1.5901575387639065e+02 0 0 0
1846 74 2 0.0000000000000000e+00 -2.3904151640290068e+00 -4.2370777909999894e+01 -1.5491369318409394e+02 0 0 0
1847 74 2 0.0000000000000000e+00 5.3022218154102516e+00 -3.7396047891113248e+01 -1.5964798013175076e+02 0 0 0
1849 74 2 0.0000000000000000e+00 2.1080028745564306e+01 -3.6706354306764425e+01 -1.5570961889834550e+02 0 0 0
2782 112 3 0.0000000000000000e+00 2.3677449690168423e+01 -4.6632395043053556e+01 -1.6399766321952194e+02 0 0 0
4460 179 4 0.0000000000000000e+00 -2.7923272294901508e+01 -2.2074587803994323e+01 -1.5204916528593924e+02 0 0 0
3067 123 4 0.0000000000000000e+00 -1.3166459244556597e+01 -2.3934180597558900e+01 -1.5281387372499893e+02 0 0 0
1848 74 2 0.0000000000000000e+00 1.2450266481379733e+01 -3.1737978140848892e+01 -1.5678425932783799e+02 0 0 0
1451 59 1 0.0000000000000000e+00 2.0200140082610194e+01 -2.3713444551991618e+01 -1.6450676660822472e+02 0 0 0
4780 192 4 0.0000000000000000e+00 1.9624870067657945e+01 -2.2046039933472958e+01 -1.5187192561465892e+02 0 0 0
4482 180 3 0.0000000000000000e+00 -4.9239070822384143e+01 -1.5211078898309189e+01 -1.5209198823029885e+02 0 0 0
4483 180 4 0.0000000000000000e+00 -4.1772302630026964e+01 -9.2977936050066088e+00 -1.5564074907645295e+02 0 0 0
4461 179 4 0.0000000000000000e+00 -2.5440877426924473e+01 -1.5718943231584166e+01 -1.5923699613902511e+02 0 0 0
1454 59 2 0.0000000000000000e+00 3.3597979387647081e-01 -1.2536153482904789e+01 -1.5971942313409843e+02 0 0 0
1455 59 2 0.0000000000000000e+00 -2.8764331821687361e+00 -1.8140744497982272e+01 -1.5231464613162953e+02 0 0 0
409 17 2 0.0000000000000000e+00 1.9559020738623826e+01 -1.1080019182169297e+01 -1.5772946700749640e+02 0 0 0
3414 137 4 0.0000000000000000e+00 -5.5325074795771123e+01 5.1502955789822984e+00 -1.5193613458873065e+02 0 0 0
4484 180 4 0.0000000000000000e+00 -3.4523365857910392e+01 -3.0620736658013636e+00 -1.5382314097126803e+02 0 0 0
4462 179 4 0.0000000000000000e+00 -1.9873192866973611e+01 -6.9474937058192348e+00 -1.6026936703440722e+02 0 0 0
2244 90 1 0.0000000000000000e+00 -2.1834351985584430e+01 2.4808039101897870e+00 -1.5376019891643213e+02 0 0 0
3062 123 4 0.0000000000000000e+00 -7.0556355666226018e+00 -6.2885305122701993e+00 -1.6413965190332351e+02 0 0 0
4463 179 3 0.0000000000000000e+00 -1.3938147517335452e+01 1.6172100266499922e+00 -1.6176014769618286e+02 0 0 0
3063 123 3 0.0000000000000000e+00 -6.6722304117346551e+00 -4.6411482177585084e+00 -1.5488927109644587e+02 0 0 0
407 17 1 0.0000000000000000e+00 5.5559569348069786e+00 2.1833969473028008e+00 -1.5874244511995369e+02 0 0 0
408 17 2 0.0000000000000000e+00 1.2735813819596432e+01 -4.1785769680467828e+00 -1.6037371352947542e+02 0 0 0
3211 129 4 0.0000000000000000e+00 2.2720236053868931e+01 1.3514115005086946e+00 -1.5466085613259062e+02 0 0 0
3210 129 4 0.0000000000000000e+00 2.2304754882170091e+01 4.2690553189067710e+00 -1.6380931729663405e+02 0 0 0
3413 137 3 0.0000000000000000e+00 -4.5002549942444894e+01 6.7667288404486419e+00 -1.5418765289143596e+02 0 0 0
3412 137 4 0.0000000000000000e+00 -3.7944352605641399e+01 1.3443248076742460e+01 -1.5702688185097213e+02 0 0 0
2243 90 2 0.0000000000000000e+00 -1.7799251463642165e+01 1.0006380778930243e+01 -1.5950603590079115e+02 0 0 0
3411 137 4 0.0000000000000000e+00 -2.8124171523081063e+01 1.4944783898896066e+01 -1.5490457419750715e+02 0 0 0
4464 179 4 0.0000000000000000e+00 -8.6365722441896047e+00 1.0396548263584553e+01 -1.6272900153048622e+02 0 0 0
405 17 2 0.0000000000000000e+00 -7.3478011802598493e+00 1.7576176760789064e+01 -1.5472396700266978e+02 0 0 0
406 17 2 0.0000000000000000e+00 -1.2274001114723483e+00 9.1049035371672886e+00 -1.5641372138479161e+02 0 0 0
3209 129 4 0.0000000000000000e+00 1.3074384207104785e+01 9.2156297264652522e+00 -1.6312350824679336e+02 0 0 0
4151 167 3 0.0000000000000000e+00 -1.3982604939216664e+01 -5.6739354566233814e+01 -1.4181669093260217e+02 0 0 0
269 11 1 0.0000000000000000e+00 2.5058623090875369e+00 -5.4618723849586104e+01 -1.3943483687192165e+02 0 0 0
51 3 1 0.0000000000000000e+00 2.1295487419691622e+01 -5.8054376726734411e+01 -1.4769916930162972e+02 0 0 0
52 3 2 0.0000000000000000e+00 1.1082676366287329e+01 -5.7925100012517746e+01 -1.4959244626307600e+02 0 0 0
3069 123 3 0.0000000000000000e+00 -2.1203337745118134e+01 -3.6221383591841821e+01 -1.3903691223310480e+02 0 0 0
1845 74 2 0.0000000000000000e+00 -1.1272521976227475e+01 -4.3128849165791060e+01 -1.5065548853851732e+02 0 0 0
1844 74 1 0.0000000000000000e+00 -1.5793833108049368e+01 -4.5212113985615687e+01 -1.4156312399262424e+02 0 0 0
270 11 2 0.0000000000000000e+00 8.2734495430070059e+00 -4.8112105876414610e+01 -1.4326925365622390e+02 0 0 0
271 11 2 0.0000000000000000e+00 4.4386721698615768e+00 -3.9341316564940776e+01 -1.4599058863652891e+02 0 0 0
1051 43 1 0.0000000000000000e+00 -4.5727991158203601e+01 -2.2576783121311433e+01 -1.4510726354082954e+02 0 0 0
4459 179 4 0.0000000000000000e+00 -2.5306698247797076e+01 -2.2338682923507442e+01 -1.4154939976251762e+02 0 0 0
3068 123 4 0.0000000000000000e+00 -1.5535131441111414e+01 -3.1407583076281622e+01 -1.4611450472056018e+02 0 0 0
3178 128 4 0.0000000000000000e+00 -8.2607990744817421e+00 -3.1544756124736754e+01 -1.3966490563129295e+02 0 0 0
272 11 2 0.0000000000000000e+00 5.7758446706830222e+00 -2.9800351831505058e+01 -1.4633034983775391e+02 0 0 0
1456 59 2 0.0000000000000000e+00 -2.8883593895963751e+00 -2.2259464131180003e+01 -1.4330048762051385e+02 0 0 0
3401 137 3 0.0000000000000000e+00 1.3940769346789024e+01 -3.2565597571144210e+01 -1.3669602574996225e+02 0 0 0
458 19 2 0.0000000000000000e+00 2.2008990378881403e+01 -2.6346479384067415e+01 -1.3747055409620327e+02 0 0 0
4479 180 4 0.0000000000000000e+00 -7.3518995824068298e+01 -1.0641264234746929e+01 -1.4288617720401010e+02 0 0 0
4480 180 4 0.0000000000000000e+00 -6.3263867676366722e+01 -1.2693963972818622e+01 -1.4210007292822931e+02 0 0 0
4481 180 4 0.0000000000000000e+00 -5.7433343816718775e+01 -1.9109023235190200e+01 -1.4718131947204833e+02 0 0 0
1052 43 2 0.0000000000000000e+00 -4.1640311438372933e+01 -1.3721420357380092e+01 -1.4087804176261855e+02 0 0 0
2246 90 2 0.0000000000000000e+00 -2.4050291566011204e+01 -7.7588834606281587e+00 -1.3857506242794571e+02 0 0 0
3066 123 4 0.0000000000000000e+00 -1.5642537341472941e+01 -1.4346460613423266e+01 -1.5035813261246997e+02 0 0 0
3065 123 4 0.0000000000000000e+00 -1.4041037285603133e+01 -1.0827034059488108e+01 -1.4117882833251494e+02 0 0 0
3064 123 4 0.0000000000000000e+00 -5.8875350240240643e+00 -9.0737344555630095e+00 -1.4619138775399821e+02 0 0 0
273 11 2 0.0000000000000000e+00 6.2065593684583806e+00 -1.9669952959105416e+01 -1.4720835932177550e+02 0 0 0
274 11 2 0.0000000000000000e+00 4.1301530541060432e+00 -9.6836723278445422e+00 -1.4828396543726546e+02 0 0 0
4781 192 4 0.0000000000000000e+00 1.7388769476928562e+01 -1.5840282808316967e+01 -1.4393680717268387e+02 0 0 0
4782 192 3 0.0000000000000000e+00 1.0907457321361596e+01 -1.6230539868614155e+01 -1.3701308985567107e+02 0 0 0
3415 137 4 0.0000000000000000e+00 -6.2726983628075956e+01 1.0566965829676731e+00 -1.4610946466555765e+02 0 0 0
3416 137 4 0.0000000000000000e+00 -6.0529178556537424e+01 -2.0368343298921521e+00 -1.3681575520600995e+02 0 0 0
4485 180 4 0.0000000000000000e+00 -3.0703312134087618e+01 5.4753411480917338e+00 -1.5033747589326586e+02 0 0 0
1053 43 2 0.0000000000000000e+00 -4.2801670316182857e+01 -4.4844331068028200e+00 -1.3666293480092310e+02 0 0 0
2245 90 2 0.0000000000000000e+00 -2.2781176314387316e+01 3.9122294820159825e-01 -1.4373952858497901e+02 0 0 0
275 11 1 0.0000000000000000e+00 -7.5802305498036049e-01 -1.0446510088909271e+00 -1.4599951538947781e+02 0 0 0
577 24 2 0.0000000000000000e+00 7.9232608127851680e+00 -5.1905993712073881e+00 -1.3926399315575011e+02 0 0 0
576 24 1 0.0000000000000000e+00 8.5692969676098212e+00 -1.2070286463651851e+00 -1.4815381832333699e+02 0 0 0
3212 129 4 0.0000000000000000e+00 1.9549154896898727e+01 2.8311973723737260e+00 -1.4561463985954995e+02 0 0 0
2231 90 2 0.0000000000000000e+00 -8.3808178333070771e+01 1.6490023443878268e+01 -1.4406450498564053e+02 0 0 0
2021 81 2 0.0000000000000000e+00 -6.7163939372040502e+01 1.4991388120200053e+01 -1.4172111485656029e+02 0 0 0
2020 81 2 0.0000000000000000e+00 -5.7885332461614176e+01 1.3076735368643446e+01 -1.4528595378441491e+02 0 0 0
2019 81 1 0.0000000000000000e+00 -4.8161046236496773e+01 1.0936976242519059e+01 -1.4448680369745819e+02 0 0 0
4486 180 4 0.0000000000000000e+00 -3.6190844355691297e+01 1.1689277204852159e+01 -1.4472912467129029e+02 0 0 0
3410 137 4 0.0000000000000000e+00 -1.8751956504000816e+01 1.4166311994366888e+01 -1.5030417426074999e+02 0 0 0
3184 128 4 0.0000000000000000e+00 -1.7162926648658658e+01 1.4840116217739663e+01 -1.3756763536252771e+02 0 0 0
2997 120 4 0.0000000000000000e+00 -2.6532152212653301e+01 1.0531256273988671e+01 -1.3860337300466125e+02 0 0 0
2998 120 4 0.0000000000000000e+00 -2.8021460204208932e+01 1.8920085761286732e+01 -1.4396490616841120e+02 0 0 0
3409 137 4 0.0000000000000000e+00 -1.1139509137792205e+01 9.0922636817690616e+00 -1.4597687594816452e+02 0 0 0
3407 137 3 0.0000000000000000e+00 7.6567247467362671e+00 6.4662630327669826e+00 -1.4029406969758136e+02 0 0 0
3408 137 4 0.0000000000000000e+00 -1.4898727392707991e+00 9.3429678441433168e+00 -1.4388348788677288e+02 0 0 0
1060 43 2 0.0000000000000000e+00 4.7702607501635264e+00 1.7401436501029206e+01 -1.3863011933824816e+02 0 0 0
3213 129 3 0.0000000000000000e+00 1.8482845962359825e+01 1.1280630846211634e+01 -1.4117912264286818e+02 0 0 0
68 3 2 0.0000000000000000e+00 2.3951703837035943e+01 -7.7556388676714491e+01 -1.2559070954620933e+02 0 0 0
4154 167 4 0.0000000000000000e+00 -3.1794767565718956e+01 -6.8553028718764921e+01 -1.2440592475087035e+02 0 0 0
4153 167 4 0.0000000000000000e+00 -2.6469188121153511e+01 -6.6525846828421692e+01 -1.3300261533315933e+02 0 0 0
266 11 2 0.0000000000000000e+00 -1.4127193185537424e+01 -6.3296191891843790e+01 -1.2321018043420045e+02 0 0 0
267 11 2 0.0000000000000000e+00 -7.1120284338891846e+00 -6.6762406008965215e+01 -1.2924393462697734e+02 0 0 0
2153 87 2 0.0000000000000000e+00 3.7424181080155785e+00 -7.4885603636181301e+01 -1.2381756726092284e+02 0 0 0
4152 167 4 0.0000000000000000e+00 -1.7409078178310960e+01 -6.1286051793529921e+01 -1.3427693207017944e+02 0 0 0
1843 74 2 0.0000000000000000e+00 -1.2163869299732328e+01 -4.9545877979086633e+01 -1.3295355505928640e+02 0 0 0
1842 74 2 0.0000000000000000e+00 -5.6183118768176898e+00 -5.3598917472058403e+01 -1.2636285735793869e+02 0 0 0
268 11 2 0.0000000000000000e+00 3.0767054831113572e-01 -6.0280160110286637e+01 -1.3161345910366646e+02 0 0 0
3266 131 4 0.0000000000000000e+00 2.1073945730330230e+01 -5.1913751918191927e+01 -1.3433523924633789e+02 0 0 0
3073 123 4 0.0000000000000000e+00 -5.5388318045672683e+01 -4.2134683715751677e+01 -1.2585066910052819e+02 0 0 0
3072 123 4 0.0000000000000000e+00 -4.9856195436459025e+01 -3.7892450942496140e+01 -1.3264935871675189e+02 0 0 0
3071 123 4 0.0000000000000000e+00 -3.9795065222476069e+01 -3.7493829918140058e+01 -1.3299145479093588e+02 0 0 0
3070 123 4 0.0000000000000000e+00 -2.9748824706371536e+01 -3.9318886008798970e+01 -1.3516699309990787e+02 0 0 0
583 24 2 0.0000000000000000e+00 -2.2214738460552965e+01 -4.7369115267991141e+01 -1.3160816035677138e+02 0 0 0
584 24 2 0.0000000000000000e+00 -2.7025984051937186e+01 -4.6032768877720386e+01 -1.2286495026016637e+02 0 0 0
582 24 1 0.0000000000000000e+00 -1.5514835510860117e+01 -4.0077158357368553e+01 -1.3015244452073679e+02 0 0 0
3177 128 4 0.0000000000000000e+00 -3.5170431837907552e+00 -3.9545893729124501e+01 -1.3481605024126878e+02 0 0 0
1829 74 2 0.0000000000000000e+00 -2.7415671874433225e+00 -4.3027792680051839e+01 -1.2438168860880496e+02 0 0 0
3176 128 3 0.0000000000000000e+00 3.4718627284880474e+00 -4.6224639964277884e+01 -1.3176004821033564e+02 0 0 0
4458 179 4 0.0000000000000000e+00 -2.2612471834625513e+01 -2.3490085386786145e+01 -1.3165626683121286e+02 0 0 0
3179 128 4 0.0000000000000000e+00 -1.1214582672303004e+01 -2.3409052677677249e+01 -1.3471184129453522e+02 0 0 0
581 24 2 0.0000000000000000e+00 -8.7984297867555625e+00 -3.1913508815853966e+01 -1.2810623990793758e+02 0 0 0
580 24 2 0.0000000000000000e+00 -5.2374678492566291e+00 -2.2710973775332274e+01 -1.2566465578765261e+02 0 0 0
1457 59 1 0.0000000000000000e+00 2.0109015425398109e+00 -2.2920706547583801e+01 -1.3413621920133650e+02 0 0 0
1458 59 2 0.0000000000000000e+00 4.2262533864901917e+00 -2.6190695597082573e+01 -1.2454185361949526e+02 0 0 0
3402 137 4 0.0000000000000000e+00 1.4051321178109687e+01 -3.1017115923042446e+01 -1.2671199387760652e+02 0 0 0
3403 137 4 0.0000000000000000e+00 2.0576120401750419e+01 -2.3022185212947232e+01 -1.2491604918470316e+02 0 0 0
457 19 1 0.0000000000000000e+00 2.3547513032974177e+01 -3.3548023336638579e+01 -1.3073147928492804e+02 0 0 0
4478 180 4 0.0000000000000000e+00 -8.0861653514517400e+01 -8.6676360606705991e+00 -1.3612724534289086e+02 0 0 0
4477 180 4 0.0000000000000000e+00 -8.3501514760641214e+01 -8.4128134828928989e+00 -1.2632178202611306e+02 0 0 0
2067 83 2 0.0000000000000000e+00 -7.3533865274901814e+01 -1.1227566285322116e+01 -1.2751375384064730e+02 0 0 0
2066 83 2 0.0000000000000000e+00 -7.4908327313400093e+01 -2.0646653275419762e+01 -1.2349222544843862e+02 0 0 0
4455 179 4 0.0000000000000000e+00 -3.2678700946192905e+01 -1.1187991161310768e+01 -1.2363370702999580e+02 0 0 0
2247 90 2 0.0000000000000000e+00 -2.2343736839407086e+01 -1.3260306289143163e+01 -1.3020104379368973e+02 0 0 0
3180 128 4 0.0000000000000000e+00 -1.2121338309759828e+01 -1.5664111022332504e+01 -1.2819351569449006e+02 0 0 0
579 24 2 0.0000000000000000e+00 -1.8703000296224463e+00 -1.3428420603977242e+01 -1.2688204479288568e+02 0 0 0
4783 192 4 0.0000000000000000e+00 8.9982334345948427e+00 -1.4700759939963882e+01 -1.2729392923878669e+02 0 0 0
3404 137 4 0.0000000000000000e+00 2.2556202423299307e+01 -1.4988614696473215e+01 -1.3034767496929939e+02 0 0 0
2068 83 2 0.0000000000000000e+00 -7.4712657550149913e+01 -2.7632061373670367e+00 -1.3252420864207036e+02 0 0 0
2069 83 1 0.0000000000000000e+00 -6.6409990041314089e+01 -1.8360391547455988e+00 -1.2668678877800801e+02 0 0 0
1054 43 2 0.0000000000000000e+00 -4.3619071903987667e+01 1.2781637289290368e+00 -1.2895203097233227e+02 0 0 0
1055 43 2 0.0000000000000000e+00 -3.3313546745675026e+01 4.8580625292518659e-01 -1.2922395283373831e+02 0 0 0
1056 43 2 0.0000000000000000e+00 -2.3947507918685243e+01 2.5888305250387211e+00 -1.3238045624402795e+02 0 0 0
2248 90 2 0.0000000000000000e+00 -2.0545262606809850e+01 -5.5128614156569675e+00 -1.2393853596986364e+02 0 0 0
1058 43 2 0.0000000000000000e+00 -4.6770081860942865e+00 2.8774038634170664e+00 -1.3365698919080151e+02 0 0 0
3181 128 4 0.0000000000000000e+00 -1.1174341882438386e+01 -7.4169768202829838e+00 -1.2323245604482005e+02 0 0 0
1057 43 1 0.0000000000000000e+00 -1.4606664970673158e+01 4.7774025971300971e-01 -1.3500509785443055e+02 0 0 0
3182 128 3 0.0000000000000000e+00 -1.4250048314764104e+01 1.9630933660928522e+00 -1.2403631553367019e+02 0 0 0
578 24 2 0.0000000000000000e+00 1.7728639424492252e+00 -5.3294299662023068e+00 -1.3177297939381694e+02 0 0 0
3406 137 4 0.0000000000000000e+00 1.5144443560550272e+01 1.6368169501383814e+00 -1.3548910611694274e+02 0 0 0
3405 137 4 0.0000000000000000e+00 2.0406033722347566e+01 -6.0915515953471866e+00 -1.3501700121677374e+02 0 0 0
2229 90 2 0.0000000000000000e+00 -8.8559753689904056e+01 7.5053356593736176e+00 -1.2829882104652015e+02 0 0 0
2230 90 2 0.0000000000000000e+00 -8.3517960568601069e+01 1.2326446149869129e+01 -1.3525800568258575e+02 0 0 0
4451 179 3 0.0000000000000000e+00 -6.2709552555972905e+01 7.8184361134445730e+00 -1.2297005421943507e+02 0 0 0
3417 137 4 0.0000000000000000e+00 -5.5857495461312645e+01 6.2406048046874645e+00 -1.3303673964529443e+02 0 0 0
3418 137 4 0.0000000000000000e+00 -5.2246784992732515e+01 1.4818642167718126e+01 -1.3601246542869717e+02 0 0 0
1125 45 1 0.0000000000000000e+00 -4.9177610973728306e+01 1.6229887944740817e+01 -1.2554022909857554e+02 0 0 0
4452 179 4 0.0000000000000000e+00 -5.2997338903700530e+01 7.4029264642431620e+00 -1.2299929126918461e+02 0 0 0
2018 81 2 0.0000000000000000e+00 -4.2442559814083438e+01 9.4850392381206685e+00 -1.3583440335678557e+02 0 0 0
2017 81 2 0.0000000000000000e+00 -3.9749819272193022e+01 1.0421846443966382e+01 -1.2673017895785036e+02 0 0 0
2016 81 2 0.0000000000000000e+00 -3.5191180563475214e+01 1.8170859967062050e+01 -1.2425317889544540e+02 0 0 0
2996 120 4 0.0000000000000000e+00 -2.6665541723046243e+01 1.7228796394471164e+01 -1.3065018995836999e+02 0 0 0
3183 128 4 0.0000000000000000e+00 -1.2359016277105889e+01 1.0079572762652077e+01 -1.2957692268633932e+02 0 0 0
1059 43 2 0.0000000000000000e+00 1.3285512952100125e+00 1.0767707462398743e+01 -1.3169332737137415e+02 0 0 0
2809 113 4 0.0000000000000000e+00 1.4887423725493052e+01 9.4798513227540813e+00 -1.2987222002480343e+02 0 0 0
3214 129 4 0.0000000000000000e+00 1.7434747491442092e+01 1.8414980866814673e+01 -1.3458854409187299e+02 0 0 0
4949 198 4 0.0000000000000000e+00 -4.3215777060316958e+00 -8.9737513852069569e+01 -1.1305053334277534e+02 0 0 0
4947 198 4 0.0000000000000000e+00 9.6873534197893871e+00 -1.0097949417965278e+02 -1.2024845975365967e+02 0 0 0
4948 198 4 0.0000000000000000e+00 2.6145517076693743e+00 -9.6720175270139961e+01 -1.1472476370838424e+02 0 0 0
4946 198 4 0.0000000000000000e+00 1.9721633687510796e+01 -1.0181463751063797e+02 -1.1805974849663939e+02 0 0 0
260 11 2 0.0000000000000000e+00 -3.8831104054503363e+01 -8.3146580646076714e+01 -1.0867168849675096e+02 0 0 0
259 11 2 0.0000000000000000e+00 -2.8796089878942649e+01 -8.6172149473196953e+01 -1.0861979303507646e+02 0 0 0
2152 87 2 0.0000000000000000e+00 1.2106340412107720e+01 -7.8377366021418283e+01 -1.1857258732016291e+02 0 0 0
253 11 2 0.0000000000000000e+00 2.0839770182542765e+01 -8.1675652057863275e+01 -1.0969356193742709e+02 0 0 0
2398 96 2 0.0000000000000000e+00 -8.2403611789514699e+01 -6.8219287499176943e+01 -1.0923365064507411e+02 0 0 0
4156 167 4 0.0000000000000000e+00 -4.8402602236411362e+01 -6.7879553323274394e+01 -1.1446280647266079e+02 0 0 0
4155 167 4 0.0000000000000000e+00 -4.0775398176986613e+01 -6.6002229990500879e+01 -1.2123055230737094e+02 0 0 0
264 11 2 0.0000000000000000e+00 -2.9512644877585199e+01 -6.3044106704219189e+01 -1.1246787018138991e+02 0 0 0
265 11 2 0.0000000000000000e+00 -2.3221124260867445e+01 -6.2198481188748914e+01 -1.1982414035059271e+02 0 0 0
1165 47 2 0.0000000000000000e+00 -1.6152099250914617e+01 -6.6235965251613251e+01 -1.1273728993786386e+02 0 0 0
2154 87 2 0.0000000000000000e+00 1.2282632874677073e+00 -6.8403512419357710e+01 -1.1626216331266880e+02 0 0 0
2151 87 1 0.0000000000000000e+00 1.6906842167031556e+01 -7.2760331804252687e+01 -1.1200439343970424e+02 0 0 0
1826 74 1 0.0000000000000000e+00 1.1155307031598282e+01 -6.3796907140207225e+01 -1.1741277752551072e+02 0 0 0
3075 123 3 0.0000000000000000e+00 -4.4592769466469178e+01 -5.5603667603611491e+01 -1.1832059551405530e+02 0 0 0
1982 80 1 0.0000000000000000e+00 -3.9185014284792686e+01 -5.2249437214754153e+01 -1.1035283051691417e+02 0 0 0
3999 160 4 0.0000000000000000e+00 -2.0586183920219572e+01 -5.1063032263069147e+01 -1.1158689888103899e+02 0 0 0
1841 74 2 0.0000000000000000e+00 -7.7782949845574780e+00 -5.4316491581073969e+01 -1.1648831333846395e+02 0 0 0
2155 87 2 0.0000000000000000e+00 1.6616967002234782e+00 -6.0317009821929581e+01 -1.1011628140840232e+02 0 0 0
2156 87 2 0.0000000000000000e+00 6.8811882080443709e-01 -5.0427674564104514e+01 -1.0864633827509141e+02 0 0 0
1827 74 2 0.0000000000000000e+00 1.1440258192227798e+01 -5.4300666908838529e+01 -1.1485671940260914e+02 0 0 0
3269 131 3 0.0000000000000000e+00 2.1317113178648359e+01 -5.7843708421125925e+01 -1.1769155616165159e+02 0 0 0
3074 123 4 0.0000000000000000e+00 -5.0905850713483538e+01 -4.7088504831647747e+01 -1.1842119656502662e+02 0 0 0
1981 80 2 0.0000000000000000e+00 -4.6508091243773073e+01 -4.6100161386874980e+01 -1.0879934574627657e+02 0 0 0
1980 80 2 0.0000000000000000e+00 -5.6761472050686685e+01 -4.4706725552761363e+01 -1.1007636783389175e+02 0 0 0
585 24 2 0.0000000000000000e+00 -3.0544812874180636e+01 -4.4272674032218056e+01 -1.1295802090711884e+02 0 0 0
1831 74 2 0.0000000000000000e+00 -2.0097541135448825e+01 -3.6896111300410752e+01 -1.1810823096248448e+02 0 0 0
1830 74 2 0.0000000000000000e+00 -1.2347128505022242e+01 -4.2681340571474792e+01 -1.2018288168176029e+02 0 0 0
1840 74 2 0.0000000000000000e+00 -9.2943106870713326e+00 -4.6477969680591819e+01 -1.1012058322903673e+02 0 0 0
1828 74 2 0.0000000000000000e+00 4.4583694772082314e+00 -4.7958442509923813e+01 -1.1885549232705695e+02 0 0 0
2157 87 1 0.0000000000000000e+00 1.7865940502608701e-01 -4.0914647522346002e+01 -1.1255501748548141e+02 0 0 0
1461 59 2 0.0000000000000000e+00 2.2031221819395277e+01 -4.5507372534314200e+01 -1.2142245304677520e+02 0 0 0
1460 59 2 0.0000000000000000e+00 1.3801925911199564e+01 -4.0023328429053393e+01 -1.1916450936996688e+02 0 0 0
455 19 2 0.0000000000000000e+00 2.3985107343904396e+01 -3.8377699435391676e+01 -1.1265060956467508e+02 0 0 0
2064 83 2 0.0000000000000000e+00 -8.7709921479727171e+01 -2.5224526229069745e+01 -1.0875330918760274e+02 0 0 0
2065 83 2 0.0000000000000000e+00 -8.2408310726132683e+01 -2.2641659439236495e+01 -1.1716343321656031e+02 0 0 0
4457 179 3 0.0000000000000000e+00 -1.9815037004368914e+01 -2.4923459773533477e+01 -1.2210041544419580e+02 0 0 0
1832 74 1 0.0000000000000000e+00 -2.6285658076323550e+01 -3.0349774506169318e+01 -1.1350228328587502e+02 0 0 0
1459 59 2 0.0000000000000000e+00 6.8086487440017764e+00 -3.2709059515329777e+01 -1.1719515029954248e+02 0 0 0
2159 87 2 0.0000000000000000e+00 -1.5743735392279414e+00 -2.6910061860756219e+01 -1.1496561233903701e+02 0 0 0
456 19 2 0.0000000000000000e+00 2.3289328046583893e+01 -3.3094606937786530e+01 -1.2047774694244184e+02 0 0 0
2798 112 4 0.0000000000000000e+00 2.2802558540574108e+01 -2.5617587458866826e+01 -1.0882715463474904e+02 0 0 0
2063 83 1 0.0000000000000000e+00 -9.4369271932484807e+01 -1.8565601021390659e+01 -1.1386879770122495e+02 0 0 0
4476 180 3 0.0000000000000000e+00 -9.1266894040103338e+01 -9.6270503265323200e+00 -1.2017784380824196e+02 0 0 0
4456 179 4 0.0000000000000000e+00 -2.8146273685528556e+01 -1.9365056622075667e+01 -1.2045676056205612e+02 0 0 0
2161 87 2 0.0000000000000000e+00 -1.0828485169945260e+01 -1.0757757497701888e+01 -1.1149414526859189e+02 0 0 0
2160 87 2 0.0000000000000000e+00 -2.7408145872638245e+00 -1.6949782963032529e+01 -1.1193519852800475e+02 0 0 0
4785 192 4 0.0000000000000000e+00 6.6421372638794729e+00 -1.7611878290476355e+01 -1.0989047398400990e+02 0 0 0
4784 192 4 0.0000000000000000e+00 1.2431953458722845e+01 -1.4732517378489570e+01 -1.1784282627696231e+02 0 0 0
2008 81 2 0.0000000000000000e+00 -8.2613617134841334e+01 -2.4350886943044872e+00 -1.1143422993205613e+02 0 0 0
2009 81 2 0.0000000000000000e+00 -7.4971272252876730e+01 1.5714504465640851e+00 -1.1675249483288417e+02 0 0 0
2070 83 2 0.0000000000000000e+00 -6.0605215762990731e+01 -1.4066476748764418e+00 -1.1848481244009466e+02 0 0 0
4453 179 4 0.0000000000000000e+00 -4.5526308610138905e+01 3.8107432225629077e+00 -1.1764769391628541e+02 0 0 0
2071 83 2 0.0000000000000000e+00 -5.6744237505273709e+01 -5.3042050094119535e+00 -1.0973183920145939e+02 0 0 0
2250 90 1 0.0000000000000000e+00 -3.3144432497241333e+01 -5.3281565367156665e+00 -1.1403261623891910e+02 0 0 0
4454 179 4 0.0000000000000000e+00 -3.9058603721054133e+01 -3.4108304328766561e+00 -1.2165463234692245e+02 0 0 0
2249 90 2 0.0000000000000000e+00 -2.7138937038462274e+01 5.2515212919827414e-02 -1.2012488330003553e+02 0 0 0
2163 87 1 0.0000000000000000e+00 -2.4533206998268323e+01 2.7202564466721357e+00 -1.0980419706020155e+02 0 0 0
2162 87 2 0.0000000000000000e+00 -1.8757806660822883e+01 -4.3690110263007913e+00 -1.1154205655103674e+02 0 0 0
3260 131 4 0.0000000000000000e+00 2.1555678387099569e+01 -7.0532296262923841e+00 -1.1848313911956218e+02 0 0 0
3259 131 4 0.0000000000000000e+00 2.0103940631428809e+01 -3.4765794977381406e+00 -1.0984633257973876e+02 0 0 0
2227 90 2 0.0000000000000000e+00 -9.1617019174014132e+01 1.5545438693812489e+01 -1.1062844351586969e+02 0 0 0
2228 90 2 0.0000000000000000e+00 -8.8690273179331882e+01 8.8919479025212311e+00 -1.1806368784101221e+02 0 0 0
2010 81 2 0.0000000000000000e+00 -6.8356359594589492e+01 7.9786821277204991e+00 -1.1200778524905714e+02 0 0 0
2011 81 2 0.0000000000000000e+00 -5.9681174396539014e+01 1.3526531999357962e+01 -1.1304878254258512e+02 0 0 0
2012 81 2 0.0000000000000000e+00 -4.9956491686920337e+01 1.7415781179587114e+01 -1.1348706765892972e+02 0 0 0
3626 146 3 0.0000000000000000e+00 -3.4209611413337164e+01 6.4136706657656495e+00 -1.1689083627949994e+02 0 0 0
3627 146 4 0.0000000000000000e+00 -4.0494037940119931e+01 1.1167103781596371e+01 -1.1086590646533952e+02 0 0 0
2994 120 3 0.0000000000000000e+00 -2.5624464249363090e+01 1.3627755289973180e+01 -1.1334508370012664e+02 0 0 0
2995 120 4 0.0000000000000000e+00 -2.3233247992294189e+01 1.9046870510816380e+01 -1.2118273549090154e+02 0 0 0
663 27 1 0.0000000000000000e+00 -9.4360035371871387e+00 1.3576831186758490e+01 -1.1461851689772084e+02 0 0 0
2811 113 4 0.0000000000000000e+00 1.0169605503257591e+01 7.8126743639364697e+00 -1.1124113852985343e+02 0 0 0
664 27 2 0.0000000000000000e+00 -2.4029709054528419e+00 7.2569445425038985e+00 -1.1860074826268102e+02 0 0 0
665 27 2 0.0000000000000000e+00 1.2823983793641045e+00 1.6674234589923397e+01 -1.1842233594861790e+02 0 0 0
2810 113 4 0.0000000000000000e+00 1.0160487654804106e+01 7.9298429370090373e+00 -1.2114284841539236e+02 0 0 0
4792 192 4 0.0000000000000000e+00 1.8653693595315964e+01 1.4456560459340203e+01 -1.1936113140916693e+02 0 0 0
992 40 2 0.0000000000000000e+00 2.1244688222374673e+01 7.5104632875472799e+00 -1.0937798414709134e+02 0 0 0
993 40 2 0.0000000000000000e+00 1.7805338651505544e+01 1.6768331921559554e+01 -1.0844593687145013e+02 0 0 0
258 11 2 0.0000000000000000e+00 -2.0912635181615553e+01 -9.1109741542447566e+01 -1.0521832151822016e+02 0 0 0
257 11 1 0.0000000000000000e+00 -1.1601747831672322e+01 -9.0973915958855841e+01 -1.0131494834002183e+02 0 0 0
256 11 2 0.0000000000000000e+00 -2.8875148558415558e+00 -8.9663693164787816e+01 -9.6783880000877858e+01 0 0 0
255 11 2 0.0000000000000000e+00 6.7037152354020435e+00 -8.8753281145037917e+01 -9.7394778741188546e+01 0 0 0