LAMMPS data file via write_data, version 5 Jun 2019, timestep = 310000000

5000 atoms
4 atom types
5296 bonds
3 bond types
4600 angles
2 angle types

-2.5000000000000000e+02 2.5000000000000000e+02 xlo xhi
-2.5000000000000000e+02 2.5000000000000000e+02 ylo yhi
-2.5000000000000000e+02 2.5000000000000000e+02 zlo zhi

Masses

1 1000
2 1000
3 1000
4 1000

Pair Coeffs # lj/cut

1 0.3 10
2 0.3 10
3 0.3 10
4 0.3 10

Bond Coeffs # harmonic

1 3 10
2 3 10
3 3 11.22

Angle Coeffs # cosine

1 2
2 2

Atoms # full

4465 179 4 0.0000000000000000e+00 -1.0203422490973063e+01 -1.8457539633793544e+01 -1.9036712907239351e+02 0 0 0
4466 179 4 0.0000000000000000e+00 -7.4563049867917259e+00 -8.8514498732599858e+00 -1.8909180585722089e+02 0 0 0
1848 74 2 0.0000000000000000e+00 -8.4541234230292464e+00 -6.6626263726198616e+01 -1.6933501223159789e+02 0 0 0
3062 123 4 0.0000000000000000e+00 -2.5179639745571315e+01 -4.9955800772636664e+01 -1.6908116367528697e+02 0 0 0
3061 123 4 0.0000000000000000e+00 -2.4238151344777879e+01 -3.9706864923776266e+01 -1.6876988760611408e+02 0 0 0
4776 192 3 0.0000000000000000e+00 -4.4523469528526727e+00 -4.3403772268303719e+01 -1.6800587223020116e+02 0 0 0
3060 123 4 0.0000000000000000e+00 -2.5128733376303551e+01 -2.9495797109216188e+01 -1.6932461035465965e+02 0 0 0
4462 179 4 0.0000000000000000e+00 -5.9047263851680940e+00 -3.0635455126058169e+01 -1.6821527599508238e+02 0 0 0
3058 123 4 0.0000000000000000e+00 -2.7187689404265857e+01 -1.0620061065628438e+01 -1.6864874797828878e+02 0 0 0
3059 123 4 0.0000000000000000e+00 -2.3068236860288479e+01 -1.9842848183705620e+01 -1.6990396304245576e+02 0 0 0
1846 74 2 0.0000000000000000e+00 -2.1683671959251122e+01 -6.7437805224769562e+01 -1.5530770395986949e+02 0 0 0
1847 74 2 0.0000000000000000e+00 -1.6129527408427936e+01 -7.0450407940974145e+01 -1.6381716434722478e+02 0 0 0
273 11 2 0.0000000000000000e+00 -8.9106399623664121e+00 -6.4311426522044044e+01 -1.5310219780801006e+02 0 0 0
3063 123 3 0.0000000000000000e+00 -2.6200213520285043e+01 -4.9397179318968931e+01 -1.5881660318754010e+02 0 0 0
275 11 1 0.0000000000000000e+00 -1.6460449321875387e+01 -4.6359778501026341e+01 -1.5362625160803461e+02 0 0 0
4461 179 4 0.0000000000000000e+00 -8.4968198891512401e+00 -3.5767193000617148e+01 -1.6017507823912280e+02 0 0 0
2246 90 2 0.0000000000000000e+00 -2.4082308664266986e+01 -2.5828454646673752e+01 -1.5866171483385219e+02 0 0 0
2245 90 2 0.0000000000000000e+00 -1.4548822782547280e+01 -2.5781441640385154e+01 -1.6199763318446972e+02 0 0 0
401 17 1 0.0000000000000000e+00 -3.1406783615859506e+01 -8.9561377475985555e+00 -1.5763735236956896e+02 0 0 0
2244 90 1 0.0000000000000000e+00 -6.8074703629885214e+00 -2.0365084091157023e+01 -1.6596241297463001e+02 0 0 0
1451 59 1 0.0000000000000000e+00 -1.3413244895243833e+01 -1.8331699867218955e+01 -1.5421794858347235e+02 0 0 0
1845 74 2 0.0000000000000000e+00 -2.5151344697847364e+01 -6.4556143570437001e+01 -1.4583578357556934e+02 0 0 0
272 11 2 0.0000000000000000e+00 -4.0013947012059177e+00 -7.3453234543441894e+01 -1.5203110757720947e+02 0 0 0
3065 123 4 0.0000000000000000e+00 -3.0027755109830515e+01 -4.9661541926889342e+01 -1.4112965165125479e+02 0 0 0
3064 123 4 0.0000000000000000e+00 -2.9266813556368600e+01 -5.3132258213985367e+01 -1.5033025408002121e+02 0 0 0
274 11 2 0.0000000000000000e+00 -1.4926793913619944e+01 -5.6020851775266479e+01 -1.5162012770162974e+02 0 0 0
1454 59 2 0.0000000000000000e+00 -9.5151776240537860e+00 -4.5288858605267663e+01 -1.4310281846521144e+02 0 0 0
1453 59 2 0.0000000000000000e+00 -1.0123254336716714e+01 -3.6797358205982547e+01 -1.4805808572413105e+02 0 0 0
4454 179 4 0.0000000000000000e+00 -4.5966752796080947e+01 -2.9645631883277602e+01 -1.3951960609247493e+02 0 0 0
4453 179 4 0.0000000000000000e+00 -5.5938776120730836e+01 -3.0764341543380461e+01 -1.3945881955376626e+02 0 0 0
2247 90 2 0.0000000000000000e+00 -2.9639071383733327e+01 -2.4071711306751748e+01 -1.5044179562532099e+02 0 0 0
1452 59 2 0.0000000000000000e+00 -1.1246063341799115e+01 -2.7871585147052535e+01 -1.5211074956175275e+02 0 0 0
4458 179 4 0.0000000000000000e+00 -9.4683662421837944e+00 -3.1690228375684278e+01 -1.3867239565959355e+02 0 0 0
2067 83 2 0.0000000000000000e+00 -9.0313380324182646e+01 -1.6893593070395919e+01 -1.4331733159204438e+02 0 0 0
2066 83 2 0.0000000000000000e+00 -9.9456246053733864e+01 -1.5359532596787314e+01 -1.3967412467130470e+02 0 0 0
2068 83 2 0.0000000000000000e+00 -8.0630300210446819e+01 -1.7138426741705022e+01 -1.4342669881314677e+02 0 0 0
2069 83 1 0.0000000000000000e+00 -7.2058830315185304e+01 -2.1276085205814194e+01 -1.4021005209576032e+02 0 0 0
2248 90 2 0.0000000000000000e+00 -3.5082626758721865e+01 -2.0747396591083287e+01 -1.4224140856732618e+02 0 0 0
403 17 2 0.0000000000000000e+00 -1.7705515380605881e+01 -9.4867779355982833e+00 -1.4447518880422982e+02 0 0 0
402 17 2 0.0000000000000000e+00 -2.4486407662562090e+01 -1.2279414571160881e+01 -1.5139844802240734e+02 0 0 0
3407 137 3 0.0000000000000000e+00 -1.6561045100530677e+01 -2.0283390462540186e+01 -1.4372094097669432e+02 0 0 0
3406 137 4 0.0000000000000000e+00 -6.6840489566680201e+00 -2.0881655856853275e+01 -1.4055273180876222e+02 0 0 0
404 17 2 0.0000000000000000e+00 -8.9806397313626345e+00 -9.4610784777481367e+00 -1.3949167429979425e+02 0 0 0
267 11 2 0.0000000000000000e+00 -2.1233644445978165e+01 -8.1477039920976537e+01 -1.2457621067800005e+02 0 0 0
268 11 2 0.0000000000000000e+00 -1.2685853065751440e+01 -7.7240373401911739e+01 -1.2884068253617025e+02 0 0 0
1987 80 2 0.0000000000000000e+00 -4.5209507535581281e+01 -6.2678934553146668e+01 -1.2929030188487945e+02 0 0 0
4151 167 3 0.0000000000000000e+00 -3.1480020451769207e+01 -7.4590679071536954e+01 -1.3099879087405557e+02 0 0 0
1844 74 1 0.0000000000000000e+00 -2.8049768295135028e+01 -6.5336661816368789e+01 -1.3632074850422447e+02 0 0 0
1843 74 2 0.0000000000000000e+00 -2.3743452640230824e+01 -6.1777531254542005e+01 -1.2794503634771640e+02 0 0 0
1829 74 2 0.0000000000000000e+00 -8.8011578537589585e+00 -6.1975084383535723e+01 -1.3538751828318476e+02 0 0 0
1986 80 2 0.0000000000000000e+00 -5.3200735415134588e+01 -5.7140851657014124e+01 -1.2581168503837138e+02 0 0 0
1985 80 2 0.0000000000000000e+00 -5.8088677231226498e+01 -4.9244653179224528e+01 -1.2967601255095548e+02 0 0 0
1988 80 1 0.0000000000000000e+00 -3.5626288369788185e+01 -6.1460753747204990e+01 -1.2606209808374344e+02 0 0 0
1831 74 2 0.0000000000000000e+00 -1.7559264183899131e+01 -5.0721115695116104e+01 -1.3823132359825314e+02 0 0 0
1830 74 2 0.0000000000000000e+00 -1.8534443304284430e+01 -6.0869700095501116e+01 -1.3730650995994162e+02 0 0 0
3066 123 4 0.0000000000000000e+00 -3.0996363989851439e+01 -5.2053107799964494e+01 -1.3151410593985648e+02 0 0 0
1455 59 2 0.0000000000000000e+00 -4.9735865355741380e+00 -5.2275475821718274e+01 -1.3708631377471121e+02 0 0 0
3152 127 4 0.0000000000000000e+00 -1.0433550526381397e+02 -4.1238612267997752e+01 -1.3644214442249299e+02 0 0 0
3151 127 3 0.0000000000000000e+00 -9.5254267916496062e+01 -4.5997005777534277e+01 -1.3755075960125075e+02 0 0 0
2376 96 1 0.0000000000000000e+00 -8.8622895576258983e+01 -3.9209174058515252e+01 -1.3069647366436823e+02 0 0 0
4452 179 4 0.0000000000000000e+00 -6.5322025061881178e+01 -3.4791524231774268e+01 -1.3838981542321221e+02 0 0 0
1984 80 2 0.0000000000000000e+00 -6.2661011897089210e+01 -3.9885911543793419e+01 -1.2783913576482227e+02 0 0 0
580 24 2 0.0000000000000000e+00 -4.7548019400673894e+01 -4.5490993072105830e+01 -1.2479446799298340e+02 0 0 0
1833 74 2 0.0000000000000000e+00 -2.6905422426013029e+01 -3.6926659981140716e+01 -1.3354799119112542e+02 0 0 0
1832 74 1 0.0000000000000000e+00 -1.8202167103991911e+01 -4.0772241936866450e+01 -1.3693236779384551e+02 0 0 0
3153 127 4 0.0000000000000000e+00 -1.0142911343299680e+02 -3.2904696793931301e+01 -1.3084988303936490e+02 0 0 0
4451 179 3 0.0000000000000000e+00 -7.4701005917555278e+01 -3.1772916945426289e+01 -1.3632304751112576e+02 0 0 0
1982 80 1 0.0000000000000000e+00 -7.7031865269940695e+01 -3.0620423038638879e+01 -1.2503337743006294e+02 0 0 0
2070 83 2 0.0000000000000000e+00 -6.7392187770412960e+01 -2.5086152630989638e+01 -1.3185164907514348e+02 0 0 0
578 24 2 0.0000000000000000e+00 -4.5443257360277663e+01 -2.8384418362143993e+01 -1.2648432558926241e+02 0 0 0
1834 74 2 0.0000000000000000e+00 -3.1667028105071736e+01 -3.2101892222373571e+01 -1.2602435184675774e+02 0 0 0
4455 179 4 0.0000000000000000e+00 -3.6764736559120294e+01 -2.9847574461159212e+01 -1.3564908656848306e+02 0 0 0
577 24 2 0.0000000000000000e+00 -3.6582208725847273e+01 -2.2693189786708651e+01 -1.2670233304089111e+02 0 0 0
4456 179 4 0.0000000000000000e+00 -2.8328917762184236e+01 -2.4770295785081220e+01 -1.3380099277644243e+02 0 0 0
4457 179 3 0.0000000000000000e+00 -1.8961939503606906e+01 -2.9250209249409863e+01 -1.3561016389869278e+02 0 0 0
3177 128 4 0.0000000000000000e+00 -1.5136881858151023e+01 -2.3370971926595260e+01 -1.2500132842144050e+02 0 0 0
4477 180 4 0.0000000000000000e+00 -7.5108490113016146e+01 -8.8271988302587392e+00 -1.2546816786914971e+02 0 0 0
2071 83 2 0.0000000000000000e+00 -5.9338686563336452e+01 -2.0210830014981898e+01 -1.2770230995463540e+02 0 0 0
2249 90 2 0.0000000000000000e+00 -4.0303350101857120e+01 -1.5260077977611248e+01 -1.3515796303553921e+02 0 0 0
3409 137 4 0.0000000000000000e+00 -2.8611476045048867e+01 -8.4630888983855925e+00 -1.3692996443860011e+02 0 0 0
3408 137 4 0.0000000000000000e+00 -2.0944572351705702e+01 -1.5072766862934705e+01 -1.3653064010979750e+02 0 0 0
3178 128 4 0.0000000000000000e+00 -9.6320287473115762e+00 -1.5544112555411690e+01 -1.2707288552705970e+02 0 0 0
2396 96 2 0.0000000000000000e+00 -6.3129751561480148e+01 -1.0389316740678098e+02 -1.1552034868779164e+02 0 0 0
2391 96 2 0.0000000000000000e+00 -5.1316942161245798e+01 -8.3195198515016159e+01 -1.1262990435144715e+02 0 0 0
4153 167 4 0.0000000000000000e+00 -4.1107576285837297e+01 -8.3393060926818109e+01 -1.1635071294864332e+02 0 0 0
4152 167 4 0.0000000000000000e+00 -3.8644267906016999e+01 -7.7148736670329214e+01 -1.2421667713785534e+02 0 0 0
266 11 2 0.0000000000000000e+00 -2.6287715432046014e+01 -7.8440458333561040e+01 -1.1596740749311566e+02 0 0 0
1165 47 2 0.0000000000000000e+00 -7.4489617448625216e+00 -7.8165039560028418e+01 -1.1506288937551301e+02 0 0 0
1164 47 2 0.0000000000000000e+00 -6.3658432977128507e+00 -8.7429577891016621e+01 -1.1099752072730681e+02 0 0 0
2390 96 2 0.0000000000000000e+00 -4.6235834596622929e+01 -7.4150211291648361e+01 -1.1340229418517525e+02 0 0 0
4199 168 4 0.0000000000000000e+00 -3.6545691051734565e+01 -6.1666678228193085e+01 -1.1146161291189118e+02 0 0 0
1989 80 2 0.0000000000000000e+00 -2.9243280091432240e+01 -6.5743182658032097e+01 -1.1982685243529515e+02 0 0 0
1990 80 2 0.0000000000000000e+00 -2.0848283647457116e+01 -6.8092194079002695e+01 -1.1460142870239422e+02 0 0 0
3073 123 4 0.0000000000000000e+00 -7.1297301293393076e+01 -4.8953809934323338e+01 -1.1781297980429270e+02 0 0 0
4200 168 3 0.0000000000000000e+00 -4.3970323978580865e+01 -6.1064706725648975e+01 -1.1869356531347871e+02 0 0 0
581 24 2 0.0000000000000000e+00 -3.9616008254154885e+01 -4.9526724816621659e+01 -1.1984228899697146e+02 0 0 0
3068 123 4 0.0000000000000000e+00 -2.7000415036865061e+01 -5.2323250443241314e+01 -1.1226034308397406e+02 0 0 0
3067 123 4 0.0000000000000000e+00 -2.8223977883683034e+01 -5.4034446672986938e+01 -1.2239779854582582e+02 0 0 0
1842 74 2 0.0000000000000000e+00 -1.5803993792750658e+01 -5.6589625018000383e+01 -1.2408600464802458e+02 0 0 0
1841 74 2 0.0000000000000000e+00 -1.1539414119475959e+01 -5.6904648859411097e+01 -1.1494569088060432e+02 0 0 0
2377 96 2 0.0000000000000000e+00 -8.9182481439662396e+01 -3.5181768826657155e+01 -1.2130818139411043e+02 0 0 0
3074 123 4 0.0000000000000000e+00 -7.5474850110540089e+01 -3.9430860058773732e+01 -1.1805925838485879e+02 0 0 0
3072 123 4 0.0000000000000000e+00 -6.2858829236132081e+01 -4.6469721036734732e+01 -1.1306523179726923e+02 0 0 0
579 24 2 0.0000000000000000e+00 -4.9488467564447078e+01 -3.6340336200003982e+01 -1.2190926017374576e+02 0 0 0
582 24 1 0.0000000000000000e+00 -3.5226286451529603e+01 -4.2155618041462375e+01 -1.1491763617010993e+02 0 0 0
1837 74 2 0.0000000000000000e+00 -2.4073632869840303e+01 -3.7830263487649198e+01 -1.1394350450279811e+02 0 0 0
3300 132 3 0.0000000000000000e+00 -7.4022971337546011e+00 -4.5998046252225542e+01 -1.2020585553787281e+02 0 0 0
1838 74 1 0.0000000000000000e+00 -1.3995766724973770e+01 -3.8065819075184244e+01 -1.1429659370919741e+02 0 0 0
3154 127 4 0.0000000000000000e+00 -9.9365800472809624e+01 -2.6651721495785694e+01 -1.2356938242162958e+02 0 0 0
3155 127 4 0.0000000000000000e+00 -9.5109235517853847e+01 -2.9432869751114392e+01 -1.1428967739053383e+02 0 0 0
2378 96 2 0.0000000000000000e+00 -8.5154168351640266e+01 -3.1154071218433632e+01 -1.1314129156720361e+02 0 0 0
1981 80 2 0.0000000000000000e+00 -8.4382065517082935e+01 -2.4738215516351598e+01 -1.2157491642776358e+02 0 0 0
3075 123 3 0.0000000000000000e+00 -7.3119702566827414e+01 -3.0080229171400958e+01 -1.1446943207721569e+02 0 0 0
1983 80 2 0.0000000000000000e+00 -6.7293403918614331e+01 -3.2697026447061617e+01 -1.2345476328781581e+02 0 0 0
2167 87 2 0.0000000000000000e+00 -6.2152956986591775e+01 -2.3452206986055206e+01 -1.1375940909192160e+02 0 0 0
2166 87 2 0.0000000000000000e+00 -5.2549311064569302e+01 -2.7447795719227475e+01 -1.1319771456891671e+02 0 0 0
1835 74 2 0.0000000000000000e+00 -3.7833248637031666e+01 -3.1012707365137139e+01 -1.1881878461769176e+02 0 0 0
1836 74 2 0.0000000000000000e+00 -3.1610830943226311e+01 -3.2049570164522727e+01 -1.1122353514531700e+02 0 0 0
576 24 1 0.0000000000000000e+00 -2.6924044128815211e+01 -2.3113466506850219e+01 -1.2230143136192976e+02 0 0 0
3176 128 3 0.0000000000000000e+00 -2.0461770544300137e+01 -3.2518905162008600e+01 -1.2390694958076551e+02 0 0 0
2160 87 2 0.0000000000000000e+00 -1.0960315347347857e+01 -2.6107847882134354e+01 -1.1404194822582255e+02 0 0 0
4750 190 3 0.0000000000000000e+00 -1.2795742310161057e+02 -2.0225506201191397e+01 -1.1663241334772599e+02 0 0 0
4749 190 4 0.0000000000000000e+00 -1.2615131733276770e+02 -1.0855881034219289e+01 -1.1361521743752265e+02 0 0 0
1980 80 2 0.0000000000000000e+00 -9.1483832723054832e+01 -1.9929597708307856e+01 -1.1682942490927347e+02 0 0 0
1979 80 2 0.0000000000000000e+00 -9.7641281487605127e+01 -1.4487643769997735e+01 -1.1092018481055091e+02 0 0 0
4476 180 3 0.0000000000000000e+00 -8.3304891855214791e+01 -1.2583934498978396e+01 -1.2141026338774128e+02 0 0 0
3158 127 4 0.0000000000000000e+00 -7.6923367837326012e+01 -1.1954359959644302e+01 -1.1091290202183188e+02 0 0 0
2072 83 2 0.0000000000000000e+00 -5.1489939834682552e+01 -1.8505497252183591e+01 -1.2081976479192593e+02 0 0 0
3626 146 3 0.0000000000000000e+00 -4.1265282836513101e+01 -1.1989050791770444e+01 -1.2399831374723618e+02 0 0 0
2073 83 2 0.0000000000000000e+00 -4.2658412790280373e+01 -1.6793366068453274e+01 -1.1607220605761441e+02 0 0 0
2995 120 4 0.0000000000000000e+00 -2.3275344061433149e+01 -1.1695247574943419e+01 -1.1626758367847816e+02 0 0 0
2395 96 2 0.0000000000000000e+00 -6.5936265817965463e+01 -1.0923190976936753e+02 -1.0803847225733884e+02 0 0 0
2394 96 1 0.0000000000000000e+00 -6.0756784394623061e+01 -1.0423053828701643e+02 -1.0073360127125339e+02 0 0 0
3850 154 3 0.0000000000000000e+00 -6.7747292468785048e+01 -9.6856371309921258e+01 -1.0613331884303744e+02 0 0 0
3849 154 4 0.0000000000000000e+00 -6.5791210587454586e+01 -8.8732249127681371e+01 -9.9646427506923459e+01 0 0 0
2398 96 2 0.0000000000000000e+00 -4.9333075163142873e+01 -1.0047401594938191e+02 -1.0133394112926118e+02 0 0 0
2392 96 2 0.0000000000000000e+00 -5.5526878655262074e+01 -8.9907161247119546e+01 -1.0666727557421913e+02 0 0 0
2397 96 2 0.0000000000000000e+00 -5.4796666256864000e+01 -1.0072510050876879e+02 -1.1012377975471081e+02 0 0 0
2393 96 2 0.0000000000000000e+00 -5.8204534768133165e+01 -9.4642696245163989e+01 -9.8389068713246971e+01 0 0 0
4155 167 4 0.0000000000000000e+00 -4.8086309765303241e+01 -8.8709823782159120e+01 -9.9176622711297711e+01 0 0 0
4154 167 4 0.0000000000000000e+00 -4.3352878900547786e+01 -8.9876153654449681e+01 -1.0819656579682632e+02 0 0 0
264 11 2 0.0000000000000000e+00 -2.3817292040846759e+01 -9.0227955069392777e+01 -1.0022101684394333e+02 0 0 0
3527 142 4 0.0000000000000000e+00 -5.7681181436566860e+00 -1.0096288116985478e+02 -1.0299145990214537e+02 0 0 0
3174 127 4 0.0000000000000000e+00 -4.0167018157437482e+01 -7.8093767504654537e+01 -1.0005554342213743e+02 0 0 0
265 11 2 0.0000000000000000e+00 -2.4557000361267622e+01 -8.2820443334490975e+01 -1.0725787238935101e+02 0 0 0
3275 131 3 0.0000000000000000e+00 -9.1941656635499722e+00 -7.9507458500063876e+01 -1.0014131746950699e+02 0 0 0
2389 96 2 0.0000000000000000e+00 -4.2601968194061492e+01 -6.7702591238676192e+01 -1.0595425729762840e+02 0 0 0
3175 127 3 0.0000000000000000e+00 -3.4957758229627295e+01 -7.3583212730050846e+01 -1.0684493582958557e+02 0 0 0
4198 168 4 0.0000000000000000e+00 -2.9209099446461252e+01 -6.2793828688008283e+01 -1.0470844880360785e+02 0 0 0
1991 80 2 0.0000000000000000e+00 -2.2809982432244407e+01 -7.1507797064163100e+01 -1.0528174530066704e+02 0 0 0
4197 168 4 0.0000000000000000e+00 -2.2756370214661363e+01 -6.2670686859942272e+01 -9.7358185906831167e+01 0 0 0
1166 47 2 0.0000000000000000e+00 -5.9838860999946473e+00 -6.9643453565683089e+01 -1.1008926536270407e+02 0 0 0
1167 47 2 0.0000000000000000e+00 -1.1020410248843671e+01 -6.3312674601575402e+01 -1.0407141372693170e+02 0 0 0
3070 123 4 0.0000000000000000e+00 -4.6591196582980295e+01 -4.9552595280861397e+01 -1.0768556921379300e+02 0 0 0
1667 67 2 0.0000000000000000e+00 -4.6642471071674009e+01 -5.8045167500816838e+01 -9.8102532812516870e+01 0 0 0
3069 123 3 0.0000000000000000e+00 -3.6603873397220006e+01 -5.1641495484914564e+01 -1.0915424595095985e+02 0 0 0
1668 67 2 0.0000000000000000e+00 -3.6907936448598477e+01 -5.5658576795403413e+01 -1.0013198397601465e+02 0 0 0
1669 67 1 0.0000000000000000e+00 -2.7254344217687667e+01 -5.2670067508338320e+01 -9.8994684798984323e+01 0 0 0
4876 196 3 0.0000000000000000e+00 -1.6309912352247341e+01 -5.3257480883065590e+01 -1.0014296882199351e+02 0 0 0
1840 74 2 0.0000000000000000e+00 -7.4352243788154100e+00 -5.1530990682471199e+01 -1.0720675933245521e+02 0 0 0
3166 127 4 0.0000000000000000e+00 -5.7231619137780228e+01 -3.5704954970869380e+01 -1.0042561790005237e+02 0 0 0
3071 123 4 0.0000000000000000e+00 -5.5553488996165370e+01 -4.5508943437752194e+01 -1.0632855852514106e+02 0 0 0
583 24 2 0.0000000000000000e+00 -4.2027874178714661e+01 -3.8479358486818086e+01 -1.0798242672062239e+02 0 0 0
584 24 2 0.0000000000000000e+00 -4.4495736440585524e+01 -3.6268080859362932e+01 -9.8072791195977530e+01 0 0 0
4877 196 4 0.0000000000000000e+00 -1.9648991637849065e+01 -4.6550855929767302e+01 -1.0750418365295913e+02 0 0 0
4878 196 4 0.0000000000000000e+00 -2.7415960317811017e+01 -4.1989842954445876e+01 -1.0336274308240581e+02 0 0 0
1839 74 2 0.0000000000000000e+00 -5.5451912456926618e+00 -4.1281924593709320e+01 -1.0985596613450321e+02 0 0 0
1171 47 2 0.0000000000000000e+00 -1.3700833757770457e+01 -3.6683369653097387e+01 -1.0113022606521068e+02 0 0 0
3156 127 4 0.0000000000000000e+00 -9.0085684070835228e+01 -2.5315965579835240e+01 -1.0681733805499168e+02 0 0 0
2379 96 2 0.0000000000000000e+00 -7.9700586793304680e+01 -3.4060209782300397e+01 -1.0521773386754714e+02 0 0 0
2380 96 2 0.0000000000000000e+00 -7.3634239998899076e+01 -3.2429266655994589e+01 -9.6791242770745271e+01 0 0 0
2168 87 2 0.0000000000000000e+00 -7.0162500862775659e+01 -2.2046544048367934e+01 -1.0778636927783651e+02 0 0 0
3165 127 4 0.0000000000000000e+00 -5.5499805120672697e+01 -2.5891502253441217e+01 -9.8844885693824082e+01 0 0 0
2165 87 2 0.0000000000000000e+00 -4.4079921636263350e+01 -2.5323774410546125e+01 -1.0796976413479504e+02 0 0 0
4879 196 4 0.0000000000000000e+00 -3.1118459454034330e+01 -3.4603832620179773e+01 -9.8208929503407063e+01 0 0 0
1172 47 2 0.0000000000000000e+00 -1.2297441364874858e+01 -2.7143272046387988e+01 -9.7452031873448220e+01 0 0 0
1977 80 2 0.0000000000000000e+00 -1.1535654682300918e+02 -1.7018778641663641e+01 -1.0240314477277732e+02 0 0 0
1976 80 1 0.0000000000000000e+00 -1.2536497641743702e+02 -1.9212375497935934e+01 -1.0532341471237356e+02 0 0 0
1978 80 2 0.0000000000000000e+00 -1.0546478578444842e+02 -1.5143028031775197e+01 -1.0533240083692347e+02 0 0 0
2060 83 2 0.0000000000000000e+00 -9.0674981432318532e+01 -1.3941794718623585e+01 -9.9016486421124227e+01 0 0 0
3157 127 3 0.0000000000000000e+00 -8.3879971570738192e+01 -1.7354063494768081e+01 -1.0587876906804881e+02 0 0 0
2169 87 1 0.0000000000000000e+00 -7.4578591262151804e+01 -1.8303972920326387e+01 -9.9818083228569648e+01 0 0 0
2075 83 1 0.0000000000000000e+00 -4.5156921557235975e+01 -8.8373118042257008e+00 -9.8904655795137600e+01 0 0 0
2074 83 2 0.0000000000000000e+00 -4.5784095061173922e+01 -1.2917378795311027e+01 -1.0771610895042183e+02 0 0 0
2164 87 2 0.0000000000000000e+00 -3.6000234892207580e+01 -2.0477279714146455e+01 -1.0538526536737291e+02 0 0 0
2163 87 1 0.0000000000000000e+00 -2.8764774430902328e+01 -1.4480472676290237e+01 -1.0009470592221334e+02 0 0 0
2162 87 2 0.0000000000000000e+00 -1.9627424223755536e+01 -1.1371329773047826e+01 -1.0239455542977971e+02 0 0 0
3251 131 3 0.0000000000000000e+00 -5.5093389462345455e+00 -1.3367476189937635e+01 -1.1006166669884094e+02 0 0 0
2161 87 2 0.0000000000000000e+00 -1.5064248694753346e+01 -1.8517602040713765e+01 -1.0797755833998109e+02 0 0 0
3252 131 4 0.0000000000000000e+00 -7.8560687451341593e+00 -1.5919579575824679e+01 -1.0063347640469767e+02 0 0 0
2399 96 2 0.0000000000000000e+00 -4.7313699553531805e+01 -1.0091079012943413e+02 -9.1455389950711137e+01 0 0 0
2400 96 1 0.0000000000000000e+00 -5.2148472446491482e+01 -1.0017491458931768e+02 -8.2699392144488669e+01 0 0 0
263 11 1 0.0000000000000000e+00 -2.3063939485020363e+01 -8.9280372448224014e+01 -9.0502049652218943e+01 0 0 0
262 11 2 0.0000000000000000e+00 -2.8864428035683240e+01 -9.5422478750020488e+01 -8.3993834979446319e+01 0 0 0
3528 142 4 0.0000000000000000e+00 -8.6723756662474205e+00 -9.7871919815262700e+01 -9.3284704183942537e+01 0 0 0
3529 142 4 0.0000000000000000e+00 -4.8187303236805610e+00 -9.4156946126976678e+01 -8.4893301507609053e+01 0 0 0
3848 154 4 0.0000000000000000e+00 -6.6142492244497390e+01 -8.3077027502425807e+01 -9.1237551390737437e+01 0 0 0
3847 154 4 0.0000000000000000e+00 -7.1544035229237252e+01 -7.6151849293991745e+01 -8.6374164041540624e+01 0 0 0
4156 167 4 0.0000000000000000e+00 -5.2660343342309631e+01 -8.7945959063879357e+01 -9.0587642680716129e+01 0 0 0
3173 127 4 0.0000000000000000e+00 -4.7609356483168661e+01 -7.7542559324341482e+01 -9.2880981798194028e+01 0 0 0
3082 124 3 0.0000000000000000e+00 -2.0234148744569314e+01 -7.8975824181475716e+01 -8.7950534249662596e+01 0 0 0
1160 47 2 0.0000000000000000e+00 -1.4657350967215187e+01 -8.8216869204483885e+01 -8.4494795524465189e+01 0 0 0
3083 124 4 0.0000000000000000e+00 -1.1349129752160300e+01 -7.6227606284853096e+01 -9.0958008129218001e+01 0 0 0
1161 47 2 0.0000000000000000e+00 -6.1380988745977030e+00 -8.3141762100565728e+01 -8.4546074968072872e+01 0 0 0
3170 127 4 0.0000000000000000e+00 -7.3971307379436183e+01 -6.5427503007804575e+01 -9.4830438776032622e+01 0 0 0
3171 127 4 0.0000000000000000e+00 -6.7012436920479701e+01 -7.3127010418738180e+01 -9.5017272095697336e+01 0 0 0
589 24 2 0.0000000000000000e+00 -5.8299371189143379e+01 -6.4499761535570642e+01 -8.8491506108644572e+01 0 0 0
3172 127 4 0.0000000000000000e+00 -5.7282585088242449e+01 -7.4026848482075451e+01 -9.3761380618757968e+01 0 0 0
590 24 2 0.0000000000000000e+00 -5.4071385307699714e+01 -7.2007672205441665e+01 -8.3149339391144224e+01 0 0 0
1993 80 2 0.0000000000000000e+00 -3.3784573153732524e+01 -7.4110483684317117e+01 -8.9370024250147026e+01 0 0 0
2388 96 1 0.0000000000000000e+00 -3.8509678438215083e+01 -6.9013557797652808e+01 -9.6467944947808306e+01 0 0 0
2387 96 2 0.0000000000000000e+00 -3.8019753553133000e+01 -6.3842853863186932e+01 -8.7630770610723886e+01 0 0 0
1992 80 2 0.0000000000000000e+00 -2.5787715156161159e+01 -7.2617002738346613e+01 -9.4977246319133272e+01 0 0 0
4196 168 4 0.0000000000000000e+00 -2.3874713205504275e+01 -6.3655283518126971e+01 -8.7728701385329529e+01 0 0 0
4186 168 4 0.0000000000000000e+00 -9.8041737008841793e+01 -4.8762743954961671e+01 -9.2241405984978968e+01 0 0 0
4187 168 4 0.0000000000000000e+00 -8.8106365720724412e+01 -4.8307493638091842e+01 -9.3566074877093385e+01 0 0 0
3169 127 3 0.0000000000000000e+00 -7.3245098768662032e+01 -5.6593394283898768e+01 -8.9420089016724390e+01 0 0 0
588 24 1 0.0000000000000000e+00 -6.2700267839879480e+01 -5.5592556254427805e+01 -8.6997408338646807e+01 0 0 0
3168 127 4 0.0000000000000000e+00 -6.8871863136531132e+01 -4.8652957130301616e+01 -9.3429677098364081e+01 0 0 0
1666 67 2 0.0000000000000000e+00 -4.7403199299414872e+01 -5.0778685630908093e+01 -9.1504665230775601e+01 0 0 0
2386 96 2 0.0000000000000000e+00 -3.8369718611694694e+01 -5.3922003553715165e+01 -8.7491200825574339e+01 0 0 0
1670 67 2 0.0000000000000000e+00 -2.2189643569965302e+01 -5.1388560156916142e+01 -9.1097039189200174e+01 0 0 0
1168 47 2 0.0000000000000000e+00 -9.0336763968590592e+00 -5.9002125534182490e+01 -9.5003378953169701e+01 0 0 0
4185 168 4 0.0000000000000000e+00 -1.0397921950937680e+02 -4.6214406237771769e+01 -8.4125596070063239e+01 0 0 0
2057 83 1 0.0000000000000000e+00 -9.5013131163463214e+01 -3.8624472056816202e+01 -8.3148335801113049e+01 0 0 0
4188 168 3 0.0000000000000000e+00 -7.8099077530572856e+01 -4.6311665130925896e+01 -9.2109875765358552e+01 0 0 0
4189 168 4 0.0000000000000000e+00 -7.2965534181789693e+01 -4.4033101021479197e+01 -8.4070386558523310e+01 0 0 0
2000 80 1 0.0000000000000000e+00 -8.3848289181437380e+01 -4.4598957644015769e+01 -8.3375253737993916e+01 0 0 0
3167 127 4 0.0000000000000000e+00 -6.4633415931215950e+01 -3.8941515035243221e+01 -9.4144123649972016e+01 0 0 0
587 24 2 0.0000000000000000e+00 -5.8290904955353206e+01 -4.6675145900854673e+01 -8.9141959079242355e+01 0 0 0
586 24 2 0.0000000000000000e+00 -5.5037417060219525e+01 -3.6682680736024054e+01 -8.9387700243141083e+01 0 0 0
1665 67 2 0.0000000000000000e+00 -3.9075947269250520e+01 -4.6322782281835117e+01 -9.4662252085597672e+01 0 0 0
4000 160 3 0.0000000000000000e+00 -3.2307777442150034e+01 -3.5819608546634953e+01 -8.7365533493441376e+01 0 0 0
1664 67 2 0.0000000000000000e+00 -2.9484870515942827e+01 -4.3668719070434861e+01 -9.3186047297043302e+01 0 0 0
1663 67 1 0.0000000000000000e+00 -2.2424829735567272e+01 -3.6372978412803256e+01 -9.1653463469679821e+01 0 0 0
1170 47 2 0.0000000000000000e+00 -7.5743483034614361e+00 -4.3001068218305001e+01 -9.5947877134588410e+01 0 0 0
1671 67 2 0.0000000000000000e+00 -1.5525419645588103e+01 -4.7198122018751938e+01 -8.5606809289485795e+01 0 0 0
701 29 1 0.0000000000000000e+00 -1.2029186762846138e+02 -2.6018880908995687e+01 -9.5791901977998180e+01 0 0 0
702 29 2 0.0000000000000000e+00 -1.1988256319481538e+02 -3.0458219985578072e+01 -8.7062992917062616e+01 0 0 0
2876 116 3 0.0000000000000000e+00 -1.1165495572423494e+02 -2.3416133894200719e+01 -8.8976399933161247e+01 0 0 0
2058 83 2 0.0000000000000000e+00 -9.3220640275332329e+01 -3.0994646175157548e+01 -8.9677790561723882e+01 0 0 0
2059 83 2 0.0000000000000000e+00 -9.1444981931379900e+01 -2.2248732441857989e+01 -9.4597118200917194e+01 0 0 0
2381 96 2 0.0000000000000000e+00 -6.9404823822139804e+01 -3.2580542221349397e+01 -8.7511246143345375e+01 0 0 0
3996 160 4 0.0000000000000000e+00 -6.6316720622658295e+01 -2.2039939508130804e+01 -8.5414509313581632e+01 0 0 0
585 24 2 0.0000000000000000e+00 -4.8273656751683717e+01 -2.9092010188462368e+01 -9.1834903653805725e+01 0 0 0
4880 196 4 0.0000000000000000e+00 -3.1822506118066009e+01 -2.6107826503866828e+01 -9.2633761164435484e+01 0 0 0
1173 47 2 0.0000000000000000e+00 -2.0557098237873383e+01 -2.3799192906076684e+01 -9.3819033310724535e+01 0 0 0
2877 116 4 0.0000000000000000e+00 -1.0883829185219061e+02 -1.5638999885611089e+01 -9.4584505109436236e+01 0 0 0
2170 87 2 0.0000000000000000e+00 -7.5089980618187582e+01 -9.2446968556256781e+00 -9.5988104597153651e+01 0 0 0
3164 127 4 0.0000000000000000e+00 -5.4147996334768116e+01 -1.6469311097373684e+01 -9.5806778216691129e+01 0 0 0
4516 181 4 0.0000000000000000e+00 -5.3016568840724574e+01 -1.0251908789368386e+01 -8.3250670229252506e+01 0 0 0
4881 196 4 0.0000000000000000e+00 -3.6439032959003960e+01 -1.7459034108564808e+01 -9.1890029923461256e+01 0 0 0
4882 196 3 0.0000000000000000e+00 -3.3760572829505200e+01 -8.1707716025940034e+00 -8.8645952583739032e+01 0 0 0
1174 47 2 0.0000000000000000e+00 -2.6163545239003408e+01 -1.6001956558703984e+01 -9.0434555143870853e+01 0 0 0
3253 131 4 0.0000000000000000e+00 -9.5368819118393642e+00 -1.7489676744277975e+01 -9.0758762369060904e+01 0 0 0
4950 198 3 0.0000000000000000e+00 -3.2775826532769450e+01 -1.4120237448241613e+02 -6.9705731024999480e+01 0 0 0
257 11 1 0.0000000000000000e+00 -2.5780733509710203e+01 -1.3298792982612761e+02 -7.2056294674336101e+01 0 0 0
259 11 2 0.0000000000000000e+00 -3.1179404694718841e+01 -1.1655112568198096e+02 -7.5050284712820385e+01 0 0 0
258 11 2 0.0000000000000000e+00 -2.6118858857881889e+01 -1.2549265057090807e+02 -7.7546219066567431e+01 0 0 0
260 11 2 0.0000000000000000e+00 -3.5215737831279149e+01 -1.0752539140612676e+02 -7.3323060037102792e+01 0 0 0
1932 78 1 0.0000000000000000e+00 -1.9029322400736326e+01 -1.0636927116178376e+02 -7.0515686107163660e+01 0 0 0
4157 167 3 0.0000000000000000e+00 -5.7772348116588908e+01 -8.9794306617704876e+01 -8.2659304090881164e+01 0 0 0
261 11 2 0.0000000000000000e+00 -3.4015794935174029e+01 -9.8587911871829121e+01 -7.5389618923650247e+01 0 0 0
1931 78 2 0.0000000000000000e+00 -1.4445527203853008e+01 -9.7606384337936049e+01 -7.0983349262812979e+01 0 0 0
3846 154 4 0.0000000000000000e+00 -7.7163624863484088e+01 -7.5862421573404632e+01 -7.8248138656490624e+01 0 0 0