LAMMPS data file via write_data, version 5 Jun 2019, timestep = 380000000

5000 atoms
4 atom types
5297 bonds
3 bond types
4600 angles
2 angle types

-2.5000000000000000e+02 2.5000000000000000e+02 xlo xhi
-2.5000000000000000e+02 2.5000000000000000e+02 ylo yhi
-2.5000000000000000e+02 2.5000000000000000e+02 zlo zhi

Masses

1 1000
2 1000
3 1000
4 1000

Pair Coeffs # lj/cut

1 0.3 10
2 0.3 10
3 0.3 10
4 0.3 10

Bond Coeffs # harmonic

1 3 10
2 3 10
3 3 11.22

Angle Coeffs # cosine

1 2
2 2

Atoms # full

3052 123 4 0.0000000000000000e+00 -2.0035083380063661e+01 1.8486590740449309e+01 -1.9679409682216144e+02 0 0 0
3053 123 4 0.0000000000000000e+00 -2.1945139271819276e+01 1.4203547511193188e+01 -1.8740351508249535e+02 0 0 0
3054 123 4 0.0000000000000000e+00 -2.7881303193393126e+01 7.2694996204255675e+00 -1.8281909941356400e+02 0 0 0
4467 179 4 0.0000000000000000e+00 -7.5189077267629285e+00 6.5413716608618797e+00 -1.7933648439881082e+02 0 0 0
4468 179 4 0.0000000000000000e+00 -1.4576287084912559e+01 1.4208109337696717e+01 -1.7872923204210679e+02 0 0 0
2065 83 2 0.0000000000000000e+00 -1.3164800156346891e+01 -2.6055730475197070e+01 -1.7011823846390277e+02 0 0 0
2066 83 2 0.0000000000000000e+00 -6.4826258721497476e+00 -1.9197487003907217e+01 -1.7300309655011532e+02 0 0 0
2067 83 2 0.0000000000000000e+00 3.3636738115667919e+00 -1.6923144761909946e+01 -1.7046191642438782e+02 0 0 0
2068 83 2 0.0000000000000000e+00 1.0900763993945313e+01 -2.1417160423973666e+01 -1.6489522086374893e+02 0 0 0
51 3 1 0.0000000000000000e+00 1.9460679067739679e+01 -1.4540498928577472e+01 -1.6552749867632153e+02 0 0 0
3055 123 4 0.0000000000000000e+00 -3.2409722151124086e+01 9.2081362652629783e-02 -1.7647759873567813e+02 0 0 0
3056 123 4 0.0000000000000000e+00 -3.4542827163954868e+01 4.0006484910562410e+00 -1.6701272357712702e+02 0 0 0
403 17 2 0.0000000000000000e+00 -1.9140830633241098e+01 2.0399347816980105e+00 -1.6619461902180129e+02 0 0 0
4466 179 4 0.0000000000000000e+00 5.6554259347916969e-01 9.8628822876159006e-01 -1.7605135067227485e+02 0 0 0
4465 179 4 0.0000000000000000e+00 8.2785580993573511e+00 -3.6592071439365137e+00 -1.7295229076398886e+02 0 0 0
4464 179 4 0.0000000000000000e+00 1.2500014228527849e+01 -7.3142425347745341e+00 -1.6490110183547847e+02 0 0 0
2901 117 3 0.0000000000000000e+00 -7.1737361317439166e+01 9.6294547233805261e+00 -1.7696011483987002e+02 0 0 0
2232 90 1 0.0000000000000000e+00 -6.5956424204480413e+01 7.9680086356107962e+00 -1.6795894928470423e+02 0 0 0
2233 90 2 0.0000000000000000e+00 -5.6793480533322651e+01 8.3408115429911316e+00 -1.7274501265773327e+02 0 0 0
2234 90 2 0.0000000000000000e+00 -4.7494464992118232e+01 1.1181032413443567e+01 -1.7374822785761063e+02 0 0 0
2235 90 2 0.0000000000000000e+00 -3.7985866100475675e+01 1.4359711222299017e+01 -1.7055350085702517e+02 0 0 0
2150 86 1 0.0000000000000000e+00 -2.4781713757166791e+01 1.6032101464739156e+01 -1.6412996223481156e+02 0 0 0
404 17 2 0.0000000000000000e+00 -1.2764877484180049e+01 9.3981092544433409e+00 -1.6969490091507080e+02 0 0 0
2248 90 2 0.0000000000000000e+00 -2.9557318892532547e-01 1.6233798780212517e+01 -1.7132417600502538e+02 0 0 0
3406 137 4 0.0000000000000000e+00 8.8726003234001887e+00 7.2518414980552262e+00 -1.6436237177695924e+02 0 0 0
2062 83 2 0.0000000000000000e+00 -3.3680848500168516e+01 -4.1779111768021977e+01 -1.6025831692730503e+02 0 0 0
2061 83 2 0.0000000000000000e+00 -3.9260117551842093e+01 -4.9191314314661703e+01 -1.5493193836385282e+02 0 0 0
4476 180 3 0.0000000000000000e+00 -3.4468733380850274e+01 -3.1503689829980605e+01 -1.5392812592003949e+02 0 0 0
2064 83 2 0.0000000000000000e+00 -1.7427756331585393e+01 -2.9594495289603707e+01 -1.6155272412709306e+02 0 0 0
2063 83 1 0.0000000000000000e+00 -2.5664136886452617e+01 -3.5146891539334206e+01 -1.6001006587935294e+02 0 0 0
3060 123 4 0.0000000000000000e+00 -4.5601483232860389e+01 -2.2629819615661699e+01 -1.5374666503357940e+02 0 0 0
3059 123 4 0.0000000000000000e+00 -4.8507793558124618e+01 -1.3028185225600245e+01 -1.5245574649739331e+02 0 0 0
4477 180 4 0.0000000000000000e+00 -2.8554792226903764e+01 -2.3699167379314520e+01 -1.5150885439345831e+02 0 0 0
2069 83 1 0.0000000000000000e+00 5.6159563816824338e+00 -1.7518879111320469e+01 -1.5680615279693893e+02 0 0 0
4463 179 3 0.0000000000000000e+00 1.4279982331717216e+01 -1.1477064462658907e+01 -1.5597913888919385e+02 0 0 0
4451 179 3 0.0000000000000000e+00 1.3250326638177000e+01 -2.3672654599022476e+01 -1.5136765547633277e+02 0 0 0
1977 80 2 0.0000000000000000e+00 -7.9623855489809870e+01 -9.1591977522879287e+00 -1.5045945110244500e+02 0 0 0
1976 80 1 0.0000000000000000e+00 -7.0288164462477653e+01 -7.4923496535044904e+00 -1.5285591389085698e+02 0 0 0
4750 190 3 0.0000000000000000e+00 -5.9209532334474488e+01 -5.3979154377957741e+00 -1.5183816342171460e+02 0 0 0
3058 123 4 0.0000000000000000e+00 -4.5582231551942293e+01 -2.7990636139386567e+00 -1.5317030871310749e+02 0 0 0
401 17 1 0.0000000000000000e+00 -3.5900424569670200e+01 -6.2387558707604693e+00 -1.6044805835196956e+02 0 0 0
3057 123 3 0.0000000000000000e+00 -4.0028230981431527e+01 3.6347590864182742e+00 -1.5883077199437307e+02 0 0 0
402 17 2 0.0000000000000000e+00 -2.6884838929764140e+01 -2.7867646573636002e+00 -1.6157885939867427e+02 0 0 0
1053 43 2 0.0000000000000000e+00 -1.2248781693020927e+01 -6.1255077421612905e+00 -1.5090011603496515e+02 0 0 0
1054 43 2 0.0000000000000000e+00 -2.5331522555697039e+00 -5.3113079584779195e+00 -1.5303994498732251e+02 0 0 0
1055 43 2 0.0000000000000000e+00 7.5258989478459934e+00 -3.8056696812856772e+00 -1.5399936467258985e+02 0 0 0
3407 137 3 0.0000000000000000e+00 1.8619586946189406e+00 4.1088695336561134e+00 -1.5759892451338561e+02 0 0 0
2231 90 2 0.0000000000000000e+00 -7.4500537367333919e+01 8.3809250534946376e+00 -1.6283636838528216e+02 0 0 0
2230 90 2 0.0000000000000000e+00 -8.3771628382419152e+01 1.1896810125037907e+01 -1.6277635901329950e+02 0 0 0
2227 90 2 0.0000000000000000e+00 -5.8352066956064967e+01 1.6586323977122717e+01 -1.5828957860748559e+02 0 0 0
2226 90 1 0.0000000000000000e+00 -5.4968281055996840e+01 7.4021472938431030e+00 -1.6082012995151891e+02 0 0 0
2882 116 3 0.0000000000000000e+00 -5.0424220397288174e+01 9.1134074355811467e+00 -1.5070896257186897e+02 0 0 0
4493 180 4 0.0000000000000000e+00 -4.2556179559992579e+01 1.3542398687154867e+01 -1.5942083168926777e+02 0 0 0
4494 180 3 0.0000000000000000e+00 -4.2763576495263337e+01 1.7677352173020950e+01 -1.5037889937983718e+02 0 0 0
405 17 2 0.0000000000000000e+00 -8.7173785487630866e+00 1.4394028718160072e+01 -1.6217186593289631e+02 0 0 0
2250 90 1 0.0000000000000000e+00 7.6402887278146174e+00 1.2778174915497088e+01 -1.5435376684320525e+02 0 0 0
2249 90 2 0.0000000000000000e+00 2.9675386842977280e+00 1.6895262776519548e+01 -1.6216446964590364e+02 0 0 0
1056 43 2 0.0000000000000000e+00 1.1350904976848856e+01 4.9316753963934206e+00 -1.5086327273304241e+02 0 0 0
3405 137 4 0.0000000000000000e+00 1.8743986663232363e+01 7.9153497025234802e+00 -1.6347493333325028e+02 0 0 0
1057 43 1 0.0000000000000000e+00 1.7349739795876243e+01 1.2313761505372746e+01 -1.5334922122338310e+02 0 0 0
4196 168 4 0.0000000000000000e+00 -4.1603062184300484e+01 -9.0062245935494630e+01 -1.4012470627515404e+02 0 0 0
4197 168 4 0.0000000000000000e+00 -3.8293744711128539e+01 -8.1605669348137880e+01 -1.3597868211261834e+02 0 0 0
4198 168 4 0.0000000000000000e+00 -3.5512249666558070e+01 -7.2303607815476482e+01 -1.3575854121780586e+02 0 0 0
274 11 2 0.0000000000000000e+00 -5.0444217827272027e+01 -5.8405051876083185e+01 -1.3660582732787762e+02 0 0 0
273 11 2 0.0000000000000000e+00 -4.2665136205045265e+01 -6.2852150206787705e+01 -1.4074920664542310e+02 0 0 0
272 11 2 0.0000000000000000e+00 -3.3915807534379375e+01 -6.1612062373492819e+01 -1.4507302482992259e+02 0 0 0
4200 168 3 0.0000000000000000e+00 -1.7457684446784146e+01 -6.5668773958045506e+01 -1.4122996273014709e+02 0 0 0
4199 168 4 0.0000000000000000e+00 -2.7444918864399867e+01 -6.5982769350166095e+01 -1.3830684266636206e+02 0 0 0
271 11 2 0.0000000000000000e+00 -2.4727075971044702e+01 -5.7395430366277523e+01 -1.4529172968445607e+02 0 0 0
4153 167 4 0.0000000000000000e+00 -1.9507050683562689e+01 -5.7536141702758165e+01 -1.3564607385611509e+02 0 0 0
270 11 2 0.0000000000000000e+00 -1.4480383068472882e+01 -5.6140202004484458e+01 -1.4582173581942749e+02 0 0 0
269 11 1 0.0000000000000000e+00 -7.5349545927159660e+00 -6.0127570779619276e+01 -1.4031511195939490e+02 0 0 0
3065 123 4 0.0000000000000000e+00 -5.7008107647492913e+01 -4.4124203994463436e+01 -1.3723381181294741e+02 0 0 0
2060 83 2 0.0000000000000000e+00 -3.6943241298977547e+01 -4.5657941686371700e+01 -1.4560995651636932e+02 0 0 0
2059 83 2 0.0000000000000000e+00 -3.1278081245843460e+01 -4.5032800179562102e+01 -1.3679316089732316e+02 0 0 0
4151 167 3 0.0000000000000000e+00 -2.3972304025467995e+01 -3.8511013187719335e+01 -1.3688884985607612e+02 0 0 0
577 24 2 0.0000000000000000e+00 9.4014943263372022e+00 -3.9252152083207200e+01 -1.4542409105749263e+02 0 0 0
576 24 1 0.0000000000000000e+00 1.9231046757237490e+01 -4.2598021381223390e+01 -1.4730528459878036e+02 0 0 0
3061 123 4 0.0000000000000000e+00 -4.6349154751410858e+01 -2.7433845996629799e+01 -1.4494046177246844e+02 0 0 0
3062 123 4 0.0000000000000000e+00 -4.4032004340750525e+01 -3.3455320258624319e+01 -1.3671373879181388e+02 0 0 0
1845 74 2 0.0000000000000000e+00 -2.4314600096606629e+01 -2.6392644540701813e+01 -1.3788177586955379e+02 0 0 0
580 24 2 0.0000000000000000e+00 -1.0363130278224538e+01 -2.5582401304756743e+01 -1.3851789161241103e+02 0 0 0
579 24 2 0.0000000000000000e+00 -1.7723128968812922e+00 -2.6576766699491976e+01 -1.4448170084661879e+02 0 0 0
578 24 2 0.0000000000000000e+00 7.5539338009376218e+00 -2.9615092947723920e+01 -1.4360842686441833e+02 0 0 0
4452 179 4 0.0000000000000000e+00 2.1929065538402075e+01 -2.7074847939194655e+01 -1.4662294247541618e+02 0 0 0
3176 128 3 0.0000000000000000e+00 2.0441239657852378e+01 -3.4189614855218203e+01 -1.3975280316325825e+02 0 0 0
3177 128 4 0.0000000000000000e+00 1.6452043999146635e+01 -2.5159222412319739e+01 -1.3806158125182969e+02 0 0 0
1978 80 2 0.0000000000000000e+00 -8.8204280785861116e+01 -1.0271491876744546e+01 -1.4495172750746477e+02 0 0 0
1979 80 2 0.0000000000000000e+00 -8.8786555095095252e+01 -1.4318820391581530e+01 -1.3566366661313842e+02 0 0 0
1847 74 2 0.0000000000000000e+00 -3.8769814471411138e+01 -1.2620340639752492e+01 -1.3799338505849738e+02 0 0 0
1846 74 2 0.0000000000000000e+00 -3.1184334224345488e+01 -1.9479781935729264e+01 -1.4007787385745283e+02 0 0 0
4478 180 4 0.0000000000000000e+00 -2.0306705462702766e+01 -2.1374484276142724e+01 -1.4695133144016808e+02 0 0 0
4479 180 4 0.0000000000000000e+00 -1.7463191085643000e+01 -1.3854478511699075e+01 -1.4080561737844201e+02 0 0 0
2070 83 2 0.0000000000000000e+00 2.8645742334139896e+00 -1.2630319044464855e+01 -1.4827253918108229e+02 0 0 0
3178 128 4 0.0000000000000000e+00 1.5593183587158450e+01 -1.5051107329368467e+01 -1.3980678428589550e+02 0 0 0
4747 190 4 0.0000000000000000e+00 -8.1831994745043588e+01 -3.9480163210415458e+00 -1.3776935009856896e+02 0 0 0
2008 81 2 0.0000000000000000e+00 -7.3070599082834036e+01 3.5958027125283323e+00 -1.4712120316017243e+02 0 0 0
4749 190 4 0.0000000000000000e+00 -6.3930087258037396e+01 -9.4608820371018361e+00 -1.4423144508699062e+02 0 0 0
4748 190 4 0.0000000000000000e+00 -7.1543475419287546e+01 -5.1754124322458708e+00 -1.3922673865424989e+02 0 0 0
2009 81 2 0.0000000000000000e+00 -6.4433199125409075e+01 8.9543150139035421e-01 -1.4268718492027492e+02 0 0 0
2010 81 2 0.0000000000000000e+00 -5.7072307593376678e+01 -3.7092707758035073e+00 -1.3800143919090243e+02 0 0 0
1848 74 2 0.0000000000000000e+00 -4.7656367809322262e+01 -8.7898663419533438e+00 -1.4132746819166286e+02 0 0 0
1849 74 2 0.0000000000000000e+00 -4.5217514577787156e+01 1.1340604261606106e+00 -1.4275759036802248e+02 0 0 0
1052 43 2 0.0000000000000000e+00 -1.9767759660504524e+01 -8.7558013815489222e-01 -1.4706918087906055e+02 0 0 0
2071 83 2 0.0000000000000000e+00 -1.6645644456649140e+00 -9.3535333304437458e+00 -1.3973848823353342e+02 0 0 0
3408 137 4 0.0000000000000000e+00 1.9285064745152729e+00 1.5486658587666136e+00 -1.4800060839562016e+02 0 0 0
3180 128 4 0.0000000000000000e+00 9.7226954282901339e+00 3.0710018206545469e+00 -1.3664912035712732e+02 0 0 0
4462 179 4 0.0000000000000000e+00 1.9084260811557030e+01 -8.2659115908044107e+00 -1.4776536914299973e+02 0 0 0
3179 128 4 0.0000000000000000e+00 1.4834374830049311e+01 -6.5189070963090820e+00 -1.3545377778540751e+02 0 0 0
2004 81 2 0.0000000000000000e+00 -1.0898047735016158e+02 1.1432756234537131e+01 -1.4082212248054725e+02 0 0 0
2005 81 2 0.0000000000000000e+00 -1.0033726599819454e+02 8.0439017163354851e+00 -1.3707715351196344e+02 0 0 0
4075 163 3 0.0000000000000000e+00 -8.6383306983706504e+01 1.5302227098312384e+01 -1.4851255493439328e+02 0 0 0
2006 81 2 0.0000000000000000e+00 -9.0151169094493142e+01 9.8492100030163883e+00 -1.3864552463419977e+02 0 0 0
1559 63 2 0.0000000000000000e+00 -7.6336893883160798e+01 1.6474884273691632e+01 -1.3622113931745656e+02 0 0 0
2007 81 1 0.0000000000000000e+00 -8.1957661745228023e+01 6.5247499893826948e+00 -1.4343059889711259e+02 0 0 0
2881 116 4 0.0000000000000000e+00 -5.4341831403045020e+01 5.1035754530950408e+00 -1.4230947875589331e+02 0 0 0
2883 116 4 0.0000000000000000e+00 -5.2594976520043417e+01 1.5964049829977281e+01 -1.4295152553715053e+02 0 0 0
1850 74 1 0.0000000000000000e+00 -4.0584891082162727e+01 9.5667223929651346e+00 -1.4348725497694861e+02 0 0 0
3412 137 4 0.0000000000000000e+00 -3.2362643079744352e+01 1.4720094314155975e+01 -1.4175598005287532e+02 0 0 0
1051 43 1 0.0000000000000000e+00 -2.6501448802108403e+01 5.4719510674167129e+00 -1.4258024112252164e+02 0 0 0
3411 137 4 0.0000000000000000e+00 -2.2555698351899839e+01 1.6151062632514879e+01 -1.4305728829377429e+02 0 0 0
3409 137 4 0.0000000000000000e+00 -7.3089830019346680e+00 5.1585010146596568e+00 -1.4866202643933636e+02 0 0 0
3410 137 4 0.0000000000000000e+00 -1.5940758047870673e+01 8.2556025514233085e+00 -1.4387235616430138e+02 0 0 0
2999 120 4 0.0000000000000000e+00 -8.4468217735172910e+00 1.7449579009930062e+01 -1.4100473040621986e+02 0 0 0
2998 120 4 0.0000000000000000e+00 -5.9847001058623830e+00 8.0444958669889282e+00 -1.3831699994364624e+02 0 0 0
4875 195 3 0.0000000000000000e+00 2.4686422180970430e-01 1.3910148973358250e+01 -1.4844601192784253e+02 0 0 0
3181 128 4 0.0000000000000000e+00 9.2062851018335543e+00 1.0448720143282680e+01 -1.4238817958255973e+02 0 0 0
4874 195 4 0.0000000000000000e+00 3.5415055207384483e+00 1.7841949372101183e+01 -1.3904400853874898e+02 0 0 0
663 27 1 0.0000000000000000e+00 1.7104249419381325e+01 1.7001782060119819e+01 -1.3797637139495870e+02 0 0 0
4159 167 4 0.0000000000000000e+00 -2.0615997446150708e+01 -9.5494623272551863e+01 -1.2182522837533587e+02 0 0 0
4195 168 4 0.0000000000000000e+00 -3.9493350051714039e+01 -9.4489682203227076e+01 -1.3082800646282772e+02 0 0 0
4194 168 3 0.0000000000000000e+00 -3.3146621163391146e+01 -9.1782893215103542e+01 -1.2381937836913659e+02 0 0 0
4158 167 4 0.0000000000000000e+00 -2.2715228386199978e+01 -8.5937010109457120e+01 -1.2481256834847983e+02 0 0 0
1988 80 1 0.0000000000000000e+00 -7.8182350628401494e+01 -6.8928014305936927e+01 -1.2416514322136756e+02 0 0 0
1989 80 2 0.0000000000000000e+00 -6.7788079039035750e+01 -6.9438668302889766e+01 -1.2549941612429875e+02 0 0 0
4157 167 3 0.0000000000000000e+00 -2.8982997184401565e+01 -7.8133698633899130e+01 -1.2233880154741362e+02 0 0 0
2400 96 1 0.0000000000000000e+00 -1.8730203385777294e+01 -7.4604388626090156e+01 -1.2160557959640036e+02 0 0 0
1986 80 2 0.0000000000000000e+00 -9.4152351578874601e+01 -5.7300154399314764e+01 -1.2342466629694250e+02 0 0 0
1987 80 2 0.0000000000000000e+00 -8.7522263130211726e+01 -6.4559021833797047e+01 -1.2483940946661593e+02 0 0 0
3067 123 4 0.0000000000000000e+00 -7.1934426070994391e+01 -5.5405613919369877e+01 -1.3003110810124770e+02 0 0 0
3068 123 4 0.0000000000000000e+00 -7.7794617944440589e+01 -5.8659874124268747e+01 -1.2209172510535937e+02 0 0 0
4154 167 4 0.0000000000000000e+00 -2.2511944703413825e+01 -6.0098630007966406e+01 -1.2599999096757165e+02 0 0 0
268 11 2 0.0000000000000000e+00 -1.0016329809312872e+01 -6.2773949137188936e+01 -1.3080749458045429e+02 0 0 0
267 11 2 0.0000000000000000e+00 -1.0452954956014615e+01 -5.9919256409050739e+01 -1.2129445052505729e+02 0 0 0
1984 80 2 0.0000000000000000e+00 -1.0036379849933729e+02 -3.8906363309330786e+01 -1.2707070329552835e+02 0 0 0
1985 80 2 0.0000000000000000e+00 -9.7732459622177942e+01 -4.8249207047532472e+01 -1.2502448616987421e+02 0 0 0
3066 123 4 0.0000000000000000e+00 -6.4328756652648366e+01 -5.0466976075329420e+01 -1.3415796885985466e+02 0 0 0
3072 123 4 0.0000000000000000e+00 -6.4084490586528105e+01 -4.5288201821576926e+01 -1.2298470341645141e+02 0 0 0
275 11 1 0.0000000000000000e+00 -4.9751808947578333e+01 -5.0333596769249610e+01 -1.3050950309031870e+02 0 0 0
3063 123 3 0.0000000000000000e+00 -4.4971623283044060e+01 -4.0615107032328446e+01 -1.2988212920849554e+02 0 0 0
2058 83 2 0.0000000000000000e+00 -3.2857039736455675e+01 -5.0996090680281760e+01 -1.2925443642482577e+02 0 0 0
2701 109 3 0.0000000000000000e+00 -3.3978714257503867e+01 -3.9362447376785390e+01 -1.2700822412680681e+02 0 0 0
4152 167 4 0.0000000000000000e+00 -2.1795414801290494e+01 -4.7789061808699351e+01 -1.3481253482325928e+02 0 0 0
1983 80 2 0.0000000000000000e+00 -9.3267246239758293e+01 -3.1739860038863476e+01 -1.2579705403356631e+02 0 0 0
3074 123 4 0.0000000000000000e+00 -7.2583805413131614e+01 -2.8742374531952375e+01 -1.2635057334186273e+02 0 0 0
3073 123 4 0.0000000000000000e+00 -6.5402437481080838e+01 -3.5754807726212263e+01 -1.2652335536039283e+02 0 0 0
3064 123 4 0.0000000000000000e+00 -5.4160565762557439e+01 -3.6116768018536725e+01 -1.3240596392943618e+02 0 0 0
2702 109 4 0.0000000000000000e+00 -3.7920293727116302e+01 -3.0426333274480093e+01 -1.2935191333648939e+02 0 0 0
1844 74 1 0.0000000000000000e+00 -1.7430049602172495e+01 -3.1406493422623853e+01 -1.3184049827370004e+02 0 0 0
1843 74 2 0.0000000000000000e+00 -8.7648815763878591e+00 -3.2994171285973316e+01 -1.2774036411270011e+02 0 0 0
1842 74 2 0.0000000000000000e+00 3.6295003906752049e-01 -2.9043092740025248e+01 -1.2822463805646305e+02 0 0 0
1980 80 2 0.0000000000000000e+00 -9.1983973653053710e+01 -1.1658820429382699e+01 -1.2615924154736332e+02 0 0 0
2703 109 4 0.0000000000000000e+00 -4.0610677452494450e+01 -2.1441113191345970e+01 -1.3408802023089319e+02 0 0 0
583 24 2 0.0000000000000000e+00 -3.2936002932022149e+01 -2.3757587805246672e+01 -1.2241453539935335e+02 0 0 0
2704 109 4 0.0000000000000000e+00 -3.8600345555992426e+01 -1.3717389688409831e+01 -1.2776277258395325e+02 0 0 0
582 24 1 0.0000000000000000e+00 -2.4380514537558103e+01 -2.0135488024904728e+01 -1.2624584199375725e+02 0 0 0
3626 146 3 0.0000000000000000e+00 -2.9455867190135972e+01 -1.1173732974565382e+01 -1.2235303521069484e+02 0 0 0
4480 180 4 0.0000000000000000e+00 -2.3274449415179010e+01 -1.2677535635745379e+01 -1.3272039786166644e+02 0 0 0
581 24 2 0.0000000000000000e+00 -1.6101484952073474e+01 -2.0031457945043247e+01 -1.3155664307841789e+02 0 0 0
2072 83 2 0.0000000000000000e+00 -7.5917030927470490e+00 -1.0074398268560078e+01 -1.3132763883116607e+02 0 0 0
1841 74 2 0.0000000000000000e+00 7.2116507089223418e+00 -2.2526246975322788e+01 -1.2409895978148678e+02 0 0 0
2160 87 2 0.0000000000000000e+00 1.8586629153419398e+01 -1.7648703290193865e+01 -1.2304356313559039e+02 0 0 0
4746 190 4 0.0000000000000000e+00 -9.0430738687312214e+01 -1.0135687127662165e+00 -1.3435938830415179e+02 0 0 0
4745 190 4 0.0000000000000000e+00 -9.8721913285209212e+01 2.5774474942080285e+00 -1.2900390880797201e+02 0 0 0
743 30 2 0.0000000000000000e+00 -8.5203493153509484e+01 9.3409635621299600e-02 -1.2483696471830469e+02 0 0 0
2878 116 4 0.0000000000000000e+00 -6.9157693641190690e+01 -5.9764508557883396e+00 -1.2439555993627967e+02 0 0 0
2879 116 4 0.0000000000000000e+00 -6.6177587879939310e+01 2.3630569264545656e-01 -1.3182330051294426e+02 0 0 0
2011 81 2 0.0000000000000000e+00 -5.6688902916141572e+01 -4.9177433718716701e+00 -1.2805079021298098e+02 0 0 0
2012 81 2 0.0000000000000000e+00 -4.9632500308222774e+01 9.9168419103823902e-01 -1.2240403354961833e+02 0 0 0
2705 109 4 0.0000000000000000e+00 -3.9350585441222115e+01 -6.0424796546349295e+00 -1.2103828246983983e+02 0 0 0
4481 180 4 0.0000000000000000e+00 -2.6484590113039882e+01 -3.0576795347545804e+00 -1.3223706381604435e+02 0 0 0
2173 87 2 0.0000000000000000e+00 -2.3422426410498471e+01 3.7586561015966318e+00 -1.2163440628380334e+02 0 0 0
2174 87 2 0.0000000000000000e+00 -1.6090480389172676e+01 3.7563187215579377e+00 -1.2835375277228059e+02 0 0 0
2073 83 2 0.0000000000000000e+00 -1.4743970225084009e+01 -8.7148786971363990e+00 -1.2466040354246620e+02 0 0 0
2995 120 4 0.0000000000000000e+00 -4.0268559717004342e+00 -6.5937658764547473e+00 -1.2278225764995943e+02 0 0 0
2997 120 4 0.0000000000000000e+00 -1.2521578638662414e+00 6.5959298231513774e-01 -1.3322781497004723e+02 0 0 0
2996 120 4 0.0000000000000000e+00 2.3598947830507520e+00 -8.3562685282855576e+00 -1.2981335718969424e+02 0 0 0
665 27 2 0.0000000000000000e+00 2.1186457454225806e+01 3.1679483117559276e-01 -1.3017612665734495e+02 0 0 0
2003 81 2 0.0000000000000000e+00 -1.1173714823514852e+02 1.7803853951278867e+01 -1.3350101380499774e+02 0 0 0
4744 190 3 0.0000000000000000e+00 -9.6776465074339640e+01 1.1298094293546953e+01 -1.2480665744233991e+02 0 0 0
744 30 1 0.0000000000000000e+00 -8.6690329525233054e+01 9.6436626424411589e+00 -1.2747212804985759e+02 0 0 0
745 30 2 0.0000000000000000e+00 -9.0608454505234249e+01 1.8366023079812322e+01 -1.3119781107565652e+02 0 0 0
1423 57 2 0.0000000000000000e+00 -7.6951241520179124e+01 9.7274846064669376e+00 -1.2703795026373569e+02 0 0 0
2880 116 4 0.0000000000000000e+00 -6.0712266363920840e+01 7.7124066899225703e+00 -1.3485263520601532e+02 0 0 0
1560 63 2 0.0000000000000000e+00 -6.8349541837810150e+01 1.5588483177671534e+01 -1.2988897526034336e+02 0 0 0
1422 57 2 0.0000000000000000e+00 -6.6986951582871768e+01 7.8537510689803023e+00 -1.2491580883609922e+02 0 0 0
1421 57 2 0.0000000000000000e+00 -5.7427393854431351e+01 8.3501235073143061e+00 -1.2184762216592812e+02 0 0 0
3522 141 4 0.0000000000000000e+00 -5.3621095788568020e+01 1.8310194042418587e+01 -1.2198807645145497e+02 0 0 0
2975 119 3 0.0000000000000000e+00 -4.0643120718911703e+01 6.0385333484547505e+00 -1.2955292535436834e+02 0 0 0
2974 119 4 0.0000000000000000e+00 -3.3653239302491464e+01 1.2024949295556906e+01 -1.2457218320546718e+02 0 0 0
4482 180 3 0.0000000000000000e+00 -3.0242338993691877e+01 6.2108566162264491e+00 -1.3204466933149757e+02 0 0 0
4483 180 4 0.0000000000000000e+00 -2.6825766308318890e+01 1.5584175314024852e+01 -1.3214066186636521e+02 0 0 0
4484 180 4 0.0000000000000000e+00 -1.7616974725285015e+01 1.8530635428240192e+01 -1.3335270467473103e+02 0 0 0
2175 87 1 0.0000000000000000e+00 -6.1821180539870966e+00 5.2220010057186412e+00 -1.2641361160222006e+02 0 0 0
3350 134 3 0.0000000000000000e+00 -1.5413991504677271e+00 1.3964287025872956e+01 -1.2127696538646110e+02 0 0 0
664 27 2 0.0000000000000000e+00 2.3171540366009388e+01 1.0530980558980502e+01 -1.3220884919211946e+02 0 0 0
4871 195 4 0.0000000000000000e+00 2.1376676298666734e+01 1.8093628366449586e+01 -1.2487834488492057e+02 0 0 0
4161 167 4 0.0000000000000000e+00 -1.7662018368924823e+01 -1.1298044383678969e+02 -1.1197552974250911e+02 0 0 0
4160 167 4 0.0000000000000000e+00 -1.9050317680649297e+01 -1.0477488519051163e+02 -1.1769257624950563e+02 0 0 0
3846 154 4 0.0000000000000000e+00 -6.4494618581937317e+01 -8.2537874204225020e+01 -1.1617705209557094e+02 0 0 0
3847 154 4 0.0000000000000000e+00 -5.5616046098887580e+01 -8.5751829223243419e+01 -1.1967683855725929e+02 0 0 0
3848 154 4 0.0000000000000000e+00 -4.9250623664435622e+01 -8.5376797881556485e+01 -1.1203655105605276e+02 0 0 0
1994 80 1 0.0000000000000000e+00 -4.4040245373275738e+01 -9.3567565313951746e+01 -1.1963167942479245e+02 0 0 0
1995 80 2 0.0000000000000000e+00 -3.7775776698907634e+01 -9.4126909986306231e+01 -1.1150549172213709e+02 0 0 0
1993 80 2 0.0000000000000000e+00 -4.0719259124922800e+01 -8.4380793376544190e+01 -1.1672922010328034e+02 0 0 0
3849 154 4 0.0000000000000000e+00 -4.1007890209556905e+01 -8.5288804607948663e+01 -1.0657430452797003e+02 0 0 0
4192 168 4 0.0000000000000000e+00 -1.9418613734514743e+01 -8.4942058937618413e+01 -1.1204637864370218e+02 0 0 0
4193 168 4 0.0000000000000000e+00 -2.8663837666116258e+01 -8.7654498879215950e+01 -1.1567105586961685e+02 0 0 0
2399 96 2 0.0000000000000000e+00 -1.1674688464526106e+01 -8.0905468109079848e+01 -1.1781636242635928e+02 0 0 0
2398 96 2 0.0000000000000000e+00 -8.3267746511566756e+00 -8.9610037778093925e+01 -1.1374692402864065e+02 0 0 0
4191 168 4 0.0000000000000000e+00 -1.1941778671429438e+01 -8.1037174230703087e+01 -1.0631072833822557e+02 0 0 0
3845 154 4 0.0000000000000000e+00 -6.6418714055745866e+01 -7.7096138616539747e+01 -1.0822397797684135e+02 0 0 0
1991 80 2 0.0000000000000000e+00 -5.3553348927707475e+01 -7.1117301151219138e+01 -1.1574705863292752e+02 0 0 0
1992 80 2 0.0000000000000000e+00 -4.4957110078500641e+01 -7.5957514543506832e+01 -1.1197026320915505e+02 0 0 0
4156 167 4 0.0000000000000000e+00 -2.9477284311910015e+01 -6.8061506149802526e+01 -1.2045059164871375e+02 0 0 0
2390 96 2 0.0000000000000000e+00 -2.5482233008433450e+01 -7.4436265601877267e+01 -1.0921430170624697e+02 0 0 0
2389 96 2 0.0000000000000000e+00 -1.6588016084291951e+01 -7.0958069619754497e+01 -1.0689608733102210e+02 0 0 0
3069 123 3 0.0000000000000000e+00 -7.7775837423583795e+01 -6.4292741563394799e+01 -1.1348123873941137e+02 0 0 0
1990 80 2 0.0000000000000000e+00 -6.2160232848798202e+01 -6.6149545944367901e+01 -1.1859419143820543e+02 0 0 0
3070 123 4 0.0000000000000000e+00 -6.8714300811927899e+01 -6.1547948562162716e+01 -1.1023012173743344e+02 0 0 0
3071 123 4 0.0000000000000000e+00 -6.5539523619483489e+01 -5.3188783645705996e+01 -1.1619487131468844e+02 0 0 0
2055 83 2 0.0000000000000000e+00 -4.9271663959353276e+01 -5.7129200056406987e+01 -1.1114416428742464e+02 0 0 0
3172 127 4 0.0000000000000000e+00 -4.4215244245458656e+01 -6.3963896083889139e+01 -1.0665104609161187e+02 0 0 0
3173 127 4 0.0000000000000000e+00 -3.7419744599518147e+01 -6.0755015509318426e+01 -1.1315407677420015e+02 0 0 0
4155 167 4 0.0000000000000000e+00 -3.0372527589838210e+01 -5.7870735725764625e+01 -1.2052173450927231e+02 0 0 0
3174 127 4 0.0000000000000000e+00 -2.7716500489480442e+01 -6.0288317637821166e+01 -1.1008705537193750e+02 0 0 0
3175 127 3 0.0000000000000000e+00 -1.8526268395715462e+01 -6.3093612161202067e+01 -1.1330244735226110e+02 0 0 0
266 11 2 0.0000000000000000e+00 -6.1106496381666631e+00 -5.9909514330375686e+01 -1.1173179402081161e+02 0 0 0
2056 83 2 0.0000000000000000e+00 -4.4449782322538120e+01 -5.1015499190125638e+01 -1.1725144043283420e+02 0 0 0
2057 83 1 0.0000000000000000e+00 -3.6170709595346842e+01 -4.8355283466124533e+01 -1.2038687557701242e+02 0 0 0
3167 127 4 0.0000000000000000e+00 -2.0560164735458486e+01 -4.9536134706792161e+01 -1.0887838893165349e+02 0 0 0
3166 127 4 0.0000000000000000e+00 -1.6784722687692739e+01 -4.7341290550525017e+01 -1.1759014183184418e+02 0 0 0
3165 127 4 0.0000000000000000e+00 -1.2479114610623231e+01 -3.8431180567076687e+01 -1.1905297639087473e+02 0 0 0
2386 96 2 0.0000000000000000e+00 -1.1426399150928130e+01 -4.3786423638197711e+01 -1.0703539660692927e+02 0 0 0
1169 47 1 0.0000000000000000e+00 6.5343146235392702e+00 -4.2907760672204077e+01 -1.1035671990023613e+02 0 0 0
1168 47 2 0.0000000000000000e+00 1.4416591062926361e+01 -4.8429078964160752e+01 -1.1111208829096726e+02 0 0 0
1982 80 1 0.0000000000000000e+00 -9.0110389077993574e+01 -2.4781394536068444e+01 -1.2025818889194900e+02 0 0 0
3075 123 3 0.0000000000000000e+00 -7.8938914988686733e+01 -2.4848182685042968e+01 -1.2034064463101846e+02 0 0 0
2710 109 4 0.0000000000000000e+00 -5.7197264988360182e+01 -2.5272017014456857e+01 -1.0942909286334786e+02 0 0 0
585 24 2 0.0000000000000000e+00 -4.4467419178439258e+01 -3.0056638978475995e+01 -1.0825945317488608e+02 0 0 0
584 24 2 0.0000000000000000e+00 -4.1092397781579912e+01 -2.7677388497983603e+01 -1.1735393868301531e+02 0 0 0
2166 87 2 0.0000000000000000e+00 -2.6378379322922214e+01 -3.1291014036257522e+01 -1.0940275247350293e+02 0 0 0
3164 127 4 0.0000000000000000e+00 -9.8308634567368749e+00 -2.8144302745252556e+01 -1.1941114156390569e+02 0 0 0
1170 47 2 0.0000000000000000e+00 2.6572483298580174e+00 -3.3064898975270999e+01 -1.0960748132400072e+02 0 0 0
1171 47 2 0.0000000000000000e+00 -1.7924395481323641e+00 -2.4479526740892570e+01 -1.0677335103855039e+02 0 0 0
1840 74 2 0.0000000000000000e+00 1.3372124829665479e+01 -2.5212615243894650e+01 -1.1642107477788619e+02 0 0 0
1839 74 2 0.0000000000000000e+00 1.1970477787790143e+01 -2.8379457132847186e+01 -1.0699343510435534e+02 0 0 0
1981 80 2 0.0000000000000000e+00 -8.7146648399951118e+01 -1.4846034709407943e+01 -1.1756472455252307e+02 0 0 0
2876 116 3 0.0000000000000000e+00 -7.1901992771477921e+01 -1.9551960530641299e+01 -1.1041792777425027e+02 0 0 0
2877 116 4 0.0000000000000000e+00 -6.9203945671838937e+01 -1.1115200899341877e+01 -1.1504238930033236e+02 0 0 0
2709 109 4 0.0000000000000000e+00 -5.4388686415986150e+01 -1.5560214815234160e+01 -1.1224631057001933e+02 0 0 0
2165 87 2 0.0000000000000000e+00 -2.5904076291153448e+01 -2.2737274527862496e+01 -1.1388614772769047e+02 0 0 0
3627 146 4 0.0000000000000000e+00 -3.0378177276170018e+01 -1.1445800375193455e+01 -1.1303305511013708e+02 0 0 0
2164 87 2 0.0000000000000000e+00 -1.8523672864917927e+01 -1.8791462791748305e+01 -1.1905550380261569e+02 0 0 0
2075 83 1 0.0000000000000000e+00 -1.8150571340496413e+01 -1.3780280783115487e+01 -1.0759205874154028e+02 0 0 0
3163 127 3 0.0000000000000000e+00 -1.2463786205148969e+01 -2.2689896910567754e+01 -1.1073647796030107e+02 0 0 0