LAMMPS data file via write_data, version 5 Jun 2019, timestep = 310000000

5000 atoms
4 atom types
5294 bonds
3 bond types
4600 angles
2 angle types

-2.5000000000000000e+02 2.5000000000000000e+02 xlo xhi
-2.5000000000000000e+02 2.5000000000000000e+02 ylo yhi
-2.5000000000000000e+02 2.5000000000000000e+02 zlo zhi

Masses

1 1000
2 1000
3 1000
4 1000

Pair Coeffs # lj/cut

1 0.3 10
2 0.3 10
3 0.3 10
4 0.3 10

Bond Coeffs # harmonic

1 3 10
2 3 10
3 3 11.22

Angle Coeffs # cosine

1 2
2 2

Atoms # full

1451 59 1 0.0000000000000000e+00 9.8581540583342449e+00 -4.7142674769584161e+01 -1.9988261808373920e+02 0 0 0
275 11 1 0.0000000000000000e+00 -4.0981838561825391e+01 -7.3381416120154682e+01 -1.8483647473571486e+02 0 0 0
3063 123 3 0.0000000000000000e+00 -4.0717495354318928e+01 -6.3688305125139841e+01 -1.7899646443170721e+02 0 0 0
274 11 2 0.0000000000000000e+00 -3.3311109586336492e+01 -6.7552862962998660e+01 -1.8639007798457479e+02 0 0 0
273 11 2 0.0000000000000000e+00 -2.3822874627839624e+01 -6.4565595500454620e+01 -1.8563842877786945e+02 0 0 0
272 11 2 0.0000000000000000e+00 -1.5696230420842811e+01 -6.2212447952806151e+01 -1.7916069856037532e+02 0 0 0
3066 123 4 0.0000000000000000e+00 -6.3269303731577949e+01 -4.8698925918400604e+01 -1.7778451996215580e+02 0 0 0
3065 123 4 0.0000000000000000e+00 -5.9084838295446964e+01 -5.7837657762590219e+01 -1.7850912771277794e+02 0 0 0
3064 123 4 0.0000000000000000e+00 -5.0168260357545257e+01 -6.1159488889027052e+01 -1.7930276079227312e+02 0 0 0
3062 123 4 0.0000000000000000e+00 -3.1306982229459980e+01 -6.0762615903861231e+01 -1.7754415860276961e+02 0 0 0
1452 59 2 0.0000000000000000e+00 1.2864827373224614e+01 -5.0773653373901134e+01 -1.9086689162594803e+02 0 0 0
1453 59 2 0.0000000000000000e+00 1.4848193944260531e+01 -4.7640450801467090e+01 -1.8124112115036326e+02 0 0 0
3052 123 4 0.0000000000000000e+00 -2.1487904502975283e+01 5.8675984104018557e+00 -1.8298183317680770e+02 0 0 0
3053 123 4 0.0000000000000000e+00 -1.2074416466276709e+01 4.2383676120007108e+00 -1.8628969791466491e+02 0 0 0
3054 123 4 0.0000000000000000e+00 -7.4766446113051082e+00 -1.3210741539071833e+00 -1.7971002028831523e+02 0 0 0
3051 123 3 0.0000000000000000e+00 -3.0435636903979798e+01 7.4882157358266799e+00 -1.7938861403406162e+02 0 0 0
1850 74 1 0.0000000000000000e+00 1.6248594551498141e+00 -8.7561173639232450e+01 -1.6895784743477321e+02 0 0 0
4776 192 3 0.0000000000000000e+00 -7.9683052081740369e-01 -7.7637355520864077e+01 -1.7297825861121441e+02 0 0 0
271 11 2 0.0000000000000000e+00 -1.1504831297232629e+01 -6.8222045515478371e+01 -1.7243570617263362e+02 0 0 0
4777 192 4 0.0000000000000000e+00 3.8133483033699309e+00 -7.3180693250260688e+01 -1.6488485248245772e+02 0 0 0
270 11 2 0.0000000000000000e+00 -7.5684978851240006e+00 -7.0493144828456437e+01 -1.6321471877146570e+02 0 0 0
3061 123 4 0.0000000000000000e+00 -2.8561737408955302e+01 -5.2719259120258826e+01 -1.7311636154770483e+02 0 0 0
3067 123 4 0.0000000000000000e+00 -6.6838114935525198e+01 -3.9514988456442666e+01 -1.7583797262401600e+02 0 0 0
3060 123 4 0.0000000000000000e+00 -3.0152511263706621e+01 -4.3628507565332406e+01 -1.6824004247321960e+02 0 0 0
4454 179 4 0.0000000000000000e+00 -1.6951809166232906e+01 -4.5915133205476543e+01 -1.7075279168118371e+02 0 0 0
4455 179 4 0.0000000000000000e+00 -7.4630354854359160e+00 -4.1664185542134490e+01 -1.7126613425417048e+02 0 0 0
4456 179 4 0.0000000000000000e+00 1.0523792111241175e+00 -4.0524011942421303e+01 -1.6638457290703198e+02 0 0 0
3068 123 4 0.0000000000000000e+00 -6.6752252671165436e+01 -3.2167753378072057e+01 -1.6899691203074210e+02 0 0 0
3056 123 4 0.0000000000000000e+00 -8.8763496820263725e+00 -1.2224490316360477e+01 -1.6394853771443465e+02 0 0 0
2244 90 1 0.0000000000000000e+00 7.4715868717553917e+00 -8.4757750102265099e+00 -1.6784545221275243e+02 0 0 0
2245 90 2 0.0000000000000000e+00 6.7596775126464905e+00 -1.7976370460690596e+01 -1.6433894124247630e+02 0 0 0
1054 43 2 0.0000000000000000e+00 -1.9776553290652430e+01 -4.6441509297101087e+00 -1.6355433664401528e+02 0 0 0
3055 123 4 0.0000000000000000e+00 -9.7402609486628542e+00 -5.2652200694580094e+00 -1.7096925795653874e+02 0 0 0
4464 179 4 0.0000000000000000e+00 -7.3195689657278580e+00 -9.3302767010802357e-01 -1.6273646052157636e+02 0 0 0
4463 179 3 0.0000000000000000e+00 5.6879571452155753e-01 -4.6741848592153373e-01 -1.6946469142576959e+02 0 0 0
4462 179 4 0.0000000000000000e+00 1.0349361297918632e+01 2.2016613103036553e+00 -1.6935075297678773e+02 0 0 0
4461 179 4 0.0000000000000000e+00 1.7463911679277878e+01 -3.2047034538320509e+00 -1.6513464328995545e+02 0 0 0
1400 56 1 0.0000000000000000e+00 -3.3157029369353928e+01 1.4908494266697625e+01 -1.7118879184622583e+02 0 0 0
4466 179 4 0.0000000000000000e+00 -9.9569976079423306e+00 1.9139577821902783e+01 -1.6319850039656333e+02 0 0 0
1847 74 2 0.0000000000000000e+00 -1.3965811365082974e+01 -8.0413022780016234e+01 -1.4995062983956660e+02 0 0 0
1849 74 2 0.0000000000000000e+00 2.2287747792370949e+00 -8.1516467577276117e+01 -1.6030109573982961e+02 0 0 0
1848 74 2 0.0000000000000000e+00 -4.8369689865652408e+00 -8.2820824507193336e+01 -1.5275960692148587e+02 0 0 0
269 11 1 0.0000000000000000e+00 -7.2522264950616160e+00 -7.1751099011588764e+01 -1.5318776753163689e+02 0 0 0
4778 192 4 0.0000000000000000e+00 9.3792603831348238e+00 -6.8174046354656454e+01 -1.5818707590026554e+02 0 0 0
4453 179 4 0.0000000000000000e+00 -1.9962675573054419e+01 -5.0555550099659428e+01 -1.6206163673156055e+02 0 0 0
1831 74 2 0.0000000000000000e+00 -5.6795275122960041e+00 -4.9103566900508405e+01 -1.5247595628187315e+02 0 0 0
4779 192 4 0.0000000000000000e+00 1.1539664761818006e+01 -6.1199702884770986e+01 -1.5122341816224787e+02 0 0 0
3059 123 4 0.0000000000000000e+00 -2.8321132185762348e+01 -3.5481606313984983e+01 -1.6213567204898035e+02 0 0 0
4451 179 3 0.0000000000000000e+00 -3.2083346852195902e+01 -4.3810946689870597e+01 -1.5036973977868124e+02 0 0 0
4452 179 4 0.0000000000000000e+00 -2.3002923865776474e+01 -4.7078718247332588e+01 -1.5346389616020261e+02 0 0 0
3406 137 4 0.0000000000000000e+00 -1.8328067830777162e+01 -3.7623880672526113e+01 -1.5835934928700010e+02 0 0 0
3405 137 4 0.0000000000000000e+00 -1.0031094494958444e+01 -3.4740514348039554e+01 -1.5308795813002834e+02 0 0 0
1832 74 1 0.0000000000000000e+00 1.9136776018234911e+00 -4.2594441618262117e+01 -1.5270324606188458e+02 0 0 0
4457 179 3 0.0000000000000000e+00 7.6793837090979400e+00 -3.6806576658592569e+01 -1.6027721676422587e+02 0 0 0
3070 123 4 0.0000000000000000e+00 -6.9473724086560594e+01 -2.8228262802060041e+01 -1.5026497443762133e+02 0 0 0
3069 123 3 0.0000000000000000e+00 -6.4821603692306851e+01 -2.8632666422961609e+01 -1.5926942168122881e+02 0 0 0
2066 83 2 0.0000000000000000e+00 -6.0373484229620551e+01 -2.2353825205935873e+01 -1.5155859566581594e+02 0 0 0
2068 83 2 0.0000000000000000e+00 -4.5594212958134108e+01 -3.1813905037862988e+01 -1.5216315945085356e+02 0 0 0
2067 83 2 0.0000000000000000e+00 -5.1552315199369687e+01 -2.4388832295892957e+01 -1.5528201209289429e+02 0 0 0
3409 137 4 0.0000000000000000e+00 -4.0196395158070146e+01 -2.1187805119267342e+01 -1.4956128464054288e+02 0 0 0
3407 137 3 0.0000000000000000e+00 -2.4712443287120731e+01 -3.2842112394279241e+01 -1.5249438316159461e+02 0 0 0
3408 137 4 0.0000000000000000e+00 -3.1539950915964706e+01 -2.6387950364610617e+01 -1.4921312914902120e+02 0 0 0
3058 123 4 0.0000000000000000e+00 -2.2597589741086811e+01 -2.7259664071091066e+01 -1.6183157268253333e+02 0 0 0
401 17 1 0.0000000000000000e+00 -2.1306187641093469e+01 -2.1290311930172955e+01 -1.5304455391804620e+02 0 0 0
3404 137 4 0.0000000000000000e+00 -1.6372099880312982e+00 -2.9694907506186198e+01 -1.5393060848540625e+02 0 0 0
4458 179 4 0.0000000000000000e+00 1.4536979940306590e+01 -3.0002392178210794e+01 -1.5776631383558200e+02 0 0 0
4459 179 4 0.0000000000000000e+00 1.8231428791932281e+01 -2.1173085969019908e+01 -1.5820616600245583e+02 0 0 0
1986 80 2 0.0000000000000000e+00 -1.1056167704916423e+02 -1.7895533281358322e+01 -1.4815262032606353e+02 0 0 0
2065 83 2 0.0000000000000000e+00 -6.4685392746009597e+01 -1.3556927974856473e+01 -1.4877377791728685e+02 0 0 0
2236 90 2 0.0000000000000000e+00 -4.4285274394954151e+01 -7.8887139854602939e+00 -1.6051251988882740e+02 0 0 0
3410 137 4 0.0000000000000000e+00 -4.6226517904116278e+01 -1.2947271389534277e+01 -1.4976400747602943e+02 0 0 0
1053 43 2 0.0000000000000000e+00 -2.6697246085021302e+01 -1.1586200118722923e+01 -1.6218230784014727e+02 0 0 0
1052 43 2 0.0000000000000000e+00 -3.2151323029963265e+01 -1.3662872484941442e+01 -1.5331522281623407e+02 0 0 0
3057 123 3 0.0000000000000000e+00 -1.5310312979928895e+01 -1.9780045933464411e+01 -1.6226658008065331e+02 0 0 0
402 17 2 0.0000000000000000e+00 -1.4662799104537253e+01 -1.3993086823668305e+01 -1.5062891740377546e+02 0 0 0
403 17 2 0.0000000000000000e+00 -5.7293819622246502e+00 -1.0080719142955159e+01 -1.5442708278780978e+02 0 0 0
2246 90 2 0.0000000000000000e+00 4.7719232401094462e+00 -1.8797575343312399e+01 -1.5434345872577450e+02 0 0 0
405 17 2 0.0000000000000000e+00 1.1558962635334844e+01 -9.3684887546665472e+00 -1.4955553778024901e+02 0 0 0
3402 137 4 0.0000000000000000e+00 1.3582456779856185e+01 -2.0465358712444996e+01 -1.4850724744911096e+02 0 0 0
2173 87 2 0.0000000000000000e+00 -6.1631761957415627e+01 -3.7292932061720556e+00 -1.4806690152606973e+02 0 0 0
2235 90 2 0.0000000000000000e+00 -5.3231106673978900e+01 -3.5082245363893456e+00 -1.5921463959933502e+02 0 0 0
2234 90 2 0.0000000000000000e+00 -5.2236669848676392e+01 5.7643663400691061e+00 -1.6220629710758897e+02 0 0 0
3411 137 4 0.0000000000000000e+00 -3.9802053545504513e+01 -5.4125871242900052e+00 -1.4929430825306332e+02 0 0 0
2237 90 2 0.0000000000000000e+00 -3.4862149939445509e+01 -4.3492867787936733e+00 -1.5850286546222080e+02 0 0 0
2238 90 1 0.0000000000000000e+00 -2.7742709750681403e+01 2.5124726380236413e+00 -1.5725161719462537e+02 0 0 0
1055 43 2 0.0000000000000000e+00 -1.4653879902749686e+01 -4.0599518758076858e+00 -1.5551121673310715e+02 0 0 0
1056 43 2 0.0000000000000000e+00 -6.3443327796247448e+00 -1.7452830243278563e+00 -1.4983686484870356e+02 0 0 0
2243 90 2 0.0000000000000000e+00 5.7477728678084761e+00 -3.3081899876592393e+00 -1.5988316666666293e+02 0 0 0
2242 90 2 0.0000000000000000e+00 5.4275965280244698e+00 2.8992106609232597e+00 -1.5165730660684628e+02 0 0 0
406 17 2 0.0000000000000000e+00 1.5733098645140794e+01 -2.8876531565347863e-01 -1.5131832800046337e+02 0 0 0
2233 90 2 0.0000000000000000e+00 -5.3621969561309861e+01 1.4219068263474295e+01 -1.5700806118863650e+02 0 0 0
3000 120 3 0.0000000000000000e+00 -3.0330104162785783e+01 1.1128709641924710e+01 -1.5130250930196939e+02 0 0 0
2239 90 2 0.0000000000000000e+00 -1.9953518043127893e+01 6.8178098156628453e+00 -1.5350303389689373e+02 0 0 0
2240 90 2 0.0000000000000000e+00 -1.1457218575959145e+01 7.8573778229780880e+00 -1.4897784357161947e+02 0 0 0
4465 179 4 0.0000000000000000e+00 -9.8354442486113562e+00 8.6426054494467017e+00 -1.6214088590256858e+02 0 0 0
2241 90 2 0.0000000000000000e+00 -2.0833065008772285e+00 9.0676312161345880e+00 -1.5252258608294594e+02 0 0 0
1846 74 2 0.0000000000000000e+00 -2.0696393309543790e+01 -7.5556319741092423e+01 -1.4435457441270151e+02 0 0 0
3527 142 4 0.0000000000000000e+00 8.9544502093097815e+00 -7.5975178008296353e+01 -1.3876667009179403e+02 0 0 0
3528 142 4 0.0000000000000000e+00 1.4178143925123743e+01 -8.3022851898544502e+01 -1.3379566840302786e+02 0 0 0
4153 167 4 0.0000000000000000e+00 -4.4518370199407649e+01 -7.0927617828744914e+01 -1.3382463969212577e+02 0 0 0
4152 167 4 0.0000000000000000e+00 -3.5892515759763846e+01 -6.6542186615931172e+01 -1.3749294826594908e+02 0 0 0
1845 74 2 0.0000000000000000e+00 -2.2546447363704178e+01 -6.5989533231847531e+01 -1.4265346544739523e+02 0 0 0
267 11 2 0.0000000000000000e+00 -1.4692797255449843e+01 -6.8109165411918582e+01 -1.3478243080909030e+02 0 0 0
268 11 2 0.0000000000000000e+00 -1.1906014361600148e+01 -6.8517106897151976e+01 -1.4424668383540981e+02 0 0 0
3526 142 3 0.0000000000000000e+00 2.7049130393069825e+00 -7.1515453940285497e+01 -1.4520167910519712e+02 0 0 0
2151 87 1 0.0000000000000000e+00 9.4204663009305190e-01 -6.9553208466987215e+01 -1.3419418829056451e+02 0 0 0
4151 167 3 0.0000000000000000e+00 -2.9783915538043122e+01 -5.9294090187685391e+01 -1.3572813223586112e+02 0 0 0
1844 74 1 0.0000000000000000e+00 -2.1923626662237279e+01 -5.5965094235131112e+01 -1.4258658122395255e+02 0 0 0
1829 74 2 0.0000000000000000e+00 3.9220586615087032e+00 -5.7239236369997720e+01 -1.4560737943012319e+02 0 0 0
1830 74 2 0.0000000000000000e+00 -6.0739392958313045e+00 -5.8008844570791268e+01 -1.4791802830044782e+02 0 0 0
2153 87 2 0.0000000000000000e+00 1.5475412059277333e-01 -5.3695670297851329e+01 -1.3685689323440110e+02 0 0 0
4780 192 4 0.0000000000000000e+00 1.5469715855743676e+01 -5.2869783179298025e+01 -1.4671230067253668e+02 0 0 0
1828 74 2 0.0000000000000000e+00 1.0192072095908346e+01 -5.8575231934000278e+01 -1.3738110436678556e+02 0 0 0
1988 80 1 0.0000000000000000e+00 -1.0540695537718184e+02 -3.5663641229017180e+01 -1.4117216330779607e+02 0 0 0
1989 80 2 0.0000000000000000e+00 -9.6808606687495754e+01 -4.0988330483476702e+01 -1.3874192950855956e+02 0 0 0
1990 80 2 0.0000000000000000e+00 -8.7024673714395846e+01 -4.0485020145942755e+01 -1.3703606174116996e+02 0 0 0
1991 80 2 0.0000000000000000e+00 -7.7754762754480950e+01 -4.3912035947512898e+01 -1.3634098668205928e+02 0 0 0
2069 83 1 0.0000000000000000e+00 -4.0298164230097605e+01 -3.8541177525863674e+01 -1.4528795036593368e+02 0 0 0
2250 90 1 0.0000000000000000e+00 -2.4530699958253326e+01 -3.8577657174732025e+01 -1.4315496836061169e+02 0 0 0
1843 74 2 0.0000000000000000e+00 -1.7553246089465045e+01 -4.7140988138175771e+01 -1.4089740372623905e+02 0 0 0
1842 74 2 0.0000000000000000e+00 -1.1139944607263487e+01 -3.8892655387107332e+01 -1.4215812162409301e+02 0 0 0
1833 74 2 0.0000000000000000e+00 2.4181166271861843e+00 -3.6058958423743981e+01 -1.4479812895585314e+02 0 0 0
2154 87 2 0.0000000000000000e+00 6.4641852063089402e+00 -4.6333640864807634e+01 -1.3881745946927407e+02 0 0 0
4781 192 4 0.0000000000000000e+00 1.7652722782867325e+01 -4.3892707787605836e+01 -1.4307630952566794e+02 0 0 0
1987 80 2 0.0000000000000000e+00 -1.0959880476259588e+02 -2.7541381842105842e+01 -1.4545135749025101e+02 0 0 0
3071 123 4 0.0000000000000000e+00 -7.0648509078259664e+01 -2.7075783317765854e+01 -1.3996667393751051e+02 0 0 0
4479 180 4 0.0000000000000000e+00 -5.9035907682813132e+01 -2.5849316826266460e+01 -1.4123137961700482e+02 0 0 0
4480 180 4 0.0000000000000000e+00 -4.8616815008234994e+01 -2.6190204673916870e+01 -1.4012138354630068e+02 0 0 0
2070 83 2 0.0000000000000000e+00 -3.3730091926002864e+01 -3.2819165985833173e+01 -1.3990059191361146e+02 0 0 0
4482 180 3 0.0000000000000000e+00 -3.1925966732826449e+01 -2.2092239227000523e+01 -1.3805386747294659e+02 0 0 0
2071 83 2 0.0000000000000000e+00 -2.5821222895918240e+01 -3.1477435735257956e+01 -1.3367180352974290e+02 0 0 0
2249 90 2 0.0000000000000000e+00 -1.7807553067174556e+01 -3.0846885043516924e+01 -1.4355198638810194e+02 0 0 0
2248 90 2 0.0000000000000000e+00 -1.0646503529163990e+01 -2.4314651434653353e+01 -1.4599808570965061e+02 0 0 0
3179 128 4 0.0000000000000000e+00 -1.7555422347721635e+01 -2.7249585529334848e+01 -1.3353296534379459e+02 0 0 0
1841 74 2 0.0000000000000000e+00 -7.2936652525703085e+00 -3.2586315621117691e+01 -1.3544064971097058e+02 0 0 0
1834 74 2 0.0000000000000000e+00 4.5688826187386073e+00 -3.1512221430315016e+01 -1.3645846948824931e+02 0 0 0
3403 137 4 0.0000000000000000e+00 6.2450998061985530e+00 -2.6561902047585548e+01 -1.4781548770340692e+02 0 0 0
4783 192 4 0.0000000000000000e+00 1.6913619740553454e+01 -2.6941646356437914e+01 -1.3909013003688443e+02 0 0 0
4784 192 4 0.0000000000000000e+00 9.6334109570149060e+00 -2.1662585289583582e+01 -1.3433439944062511e+02 0 0 0
4782 192 3 0.0000000000000000e+00 1.4481533271610775e+01 -3.4196513139445941e+01 -1.4539695406468411e+02 0 0 0
1985 80 2 0.0000000000000000e+00 -1.0330438058202373e+02 -1.0365051394771289e+01 -1.4795895110799424e+02 0 0 0
4476 180 3 0.0000000000000000e+00 -7.8139579086639770e+01 -9.8059016820019185e+00 -1.3558693473962316e+02 0 0 0
3628 146 4 0.0000000000000000e+00 -5.2811933488860447e+01 -1.4079696961258534e+01 -1.3973882394443561e+02 0 0 0
4481 180 4 0.0000000000000000e+00 -4.1495469288335805e+01 -1.9900630387819444e+01 -1.3849599572698781e+02 0 0 0
3629 146 4 0.0000000000000000e+00 -4.4423080172023525e+01 -8.3694778768113061e+00 -1.3770306797653285e+02 0 0 0
1051 43 1 0.0000000000000000e+00 -3.2743176575605652e+01 -1.1923102334897886e+01 -1.4376012165789490e+02 0 0 0
4483 180 4 0.0000000000000000e+00 -2.6451405627509935e+01 -1.5862035197508030e+01 -1.3355226239516685e+02 0 0 0
3180 128 4 0.0000000000000000e+00 -1.2995008042745882e+01 -1.8102422647360115e+01 -1.3490518974846432e+02 0 0 0
2997 120 4 0.0000000000000000e+00 -1.9402291391858668e+01 -9.8938817603110643e+00 -1.3739412406179758e+02 0 0 0
404 17 2 0.0000000000000000e+00 1.7820529725636609e+00 -8.9710112052016129e+00 -1.4789055691840173e+02 0 0 0
2247 90 2 0.0000000000000000e+00 -2.2542625902636146e+00 -1.8873388086071046e+01 -1.4725915894346002e+02 0 0 0
3181 128 4 0.0000000000000000e+00 -9.4104887942693995e+00 -1.0922851349343187e+01 -1.4087136215122254e+02 0 0 0
3401 137 3 0.0000000000000000e+00 1.4530755826761533e+01 -1.4354303342254360e+01 -1.4026761553253829e+02 0 0 0
1984 80 2 0.0000000000000000e+00 -9.9755113539211877e+01 -2.5168853192770548e+00 -1.4228703598199630e+02 0 0 0
2062 83 2 0.0000000000000000e+00 -8.6759760332675853e+01 5.4679077928651667e+00 -1.3863308394805148e+02 0 0 0
2063 83 1 0.0000000000000000e+00 -7.9555644761370274e+01 -1.1493736261312852e+00 -1.4249376652109447e+02 0 0 0
2064 83 2 0.0000000000000000e+00 -7.1312595918427292e+01 -5.9521544589935180e+00 -1.4644389597629961e+02 0 0 0
2172 87 2 0.0000000000000000e+00 -6.0030427602861209e+01 -6.5145471555237977e+00 -1.3877232488489184e+02 0 0 0
2174 87 2 0.0000000000000000e+00 -6.0121995595179889e+01 5.7421311347700401e+00 -1.4555058737992536e+02 0 0 0
3412 137 4 0.0000000000000000e+00 -4.0738241436538601e+01 1.1656115015355883e+00 -1.4204323912873997e+02 0 0 0
3630 146 4 0.0000000000000000e+00 -3.5513587414037012e+01 -4.8634901870969687e+00 -1.3508398349649900e+02 0 0 0
2999 120 4 0.0000000000000000e+00 -3.1309819109363719e+01 3.3993247799207809e+00 -1.4464135038476647e+02 0 0 0
2998 120 4 0.0000000000000000e+00 -2.5496725762356778e+01 -4.3604912828028013e+00 -1.4303156245206310e+02 0 0 0
3182 128 3 0.0000000000000000e+00 -1.4216132122474969e+01 -2.2500435511680874e+00 -1.4165877098813499e+02 0 0 0
1057 43 1 0.0000000000000000e+00 -3.6210744731346414e+00 1.9578737757538391e+00 -1.4110769626742530e+02 0 0 0
408 17 2 0.0000000000000000e+00 1.1973908462191108e+01 5.8201068580996260e+00 -1.3863773264277452e+02 0 0 0
2061 83 2 0.0000000000000000e+00 -9.5305668175613548e+01 9.6419900896323885e+00 -1.3583004091635834e+02 0 0 0
2060 83 2 0.0000000000000000e+00 -1.0456292471649881e+02 1.2905249250539402e+01 -1.3549705194261406e+02 0 0 0
2230 90 2 0.0000000000000000e+00 -7.5201279628213271e+01 9.2673227815239425e+00 -1.3963112630850793e+02 0 0 0
2231 90 2 0.0000000000000000e+00 -6.7373492018300439e+01 1.3490664352443424e+01 -1.4465804061951562e+02 0 0 0
2229 90 2 0.0000000000000000e+00 -7.9446743547662479e+01 1.8273710340353379e+01 -1.4183261303498551e+02 0 0 0
2232 90 1 0.0000000000000000e+00 -5.7805049938867086e+01 1.6190431216602786e+01 -1.4792370102231942e+02 0 0 0
2175 87 1 0.0000000000000000e+00 -5.5697189848955091e+01 7.6473411417631896e+00 -1.3620138820104168e+02 0 0 0
3350 134 3 0.0000000000000000e+00 -6.6122656833286769e+01 8.0198102978291832e+00 -1.3409007459576696e+02 0 0 0
3413 137 3 0.0000000000000000e+00 -4.3898429965196442e+01 8.9344914854168067e+00 -1.3589469417028496e+02 0 0 0
3414 137 4 0.0000000000000000e+00 -4.9235752720433503e+01 1.7426865833718857e+01 -1.3356601536143572e+02 0 0 0
2451 99 1 0.0000000000000000e+00 -4.5159980977450246e+01 1.9017589394770962e+01 -1.4272626520703929e+02 0 0 0
2020 81 2 0.0000000000000000e+00 -2.9663336408224065e+01 1.2442377513287987e+01 -1.3989088316807099e+02 0 0 0
3183 128 4 0.0000000000000000e+00 -1.9199122245784160e+01 6.2988390453358329e+00 -1.4074993776291655e+02 0 0 0
3184 128 4 0.0000000000000000e+00 -1.7713084445866055e+01 1.5952869700019116e+01 -1.4410957914042481e+02 0 0 0
1060 43 2 0.0000000000000000e+00 -6.3116668126779860e+00 1.4499193749396659e+01 -1.3770662057247873e+02 0 0 0
4120 165 4 0.0000000000000000e+00 7.0244555922742098e+00 1.8365511410108979e+01 -1.4328608611832109e+02 0 0 0
407 17 1 0.0000000000000000e+00 1.8458540030906025e+01 7.8479108660342360e+00 -1.4558130977671289e+02 0 0 0
4155 167 4 0.0000000000000000e+00 -5.7842246333776501e+01 -7.0094646103855766e+01 -1.1971744769052685e+02 0 0 0
4154 167 4 0.0000000000000000e+00 -5.2810285432529170e+01 -7.2716698355372699e+01 -1.2799445106529151e+02 0 0 0
266 11 2 0.0000000000000000e+00 -2.0896932318081895e+01 -7.0122061406869761e+01 -1.2664071587653250e+02 0 0 0
1161 47 2 0.0000000000000000e+00 -1.7020922839453281e+01 -6.4743755973620409e+01 -1.1937684492342551e+02 0 0 0
3272 131 4 0.0000000000000000e+00 6.1437801104616989e+00 -6.4803289970528141e+01 -1.1929628633575157e+02 0 0 0
1993 80 2 0.0000000000000000e+00 -7.2467657253757622e+01 -5.0581435759960229e+01 -1.1994781771481409e+02 0 0 0
1666 67 2 0.0000000000000000e+00 -5.4854494075516968e+01 -5.5940422020296985e+01 -1.2954584189059656e+02 0 0 0
1665 67 2 0.0000000000000000e+00 -5.1541468524259351e+01 -5.8561177383283479e+01 -1.2001661258458219e+02 0 0 0
576 24 1 0.0000000000000000e+00 -1.4205659220368965e+01 -5.9165072386124621e+01 -1.2843072285512199e+02 0 0 0
1162 47 2 0.0000000000000000e+00 -2.3617763254866826e+01 -6.0716043364661211e+01 -1.2598983285475749e+02 0 0 0
577 24 2 0.0000000000000000e+00 -1.9822171312946221e+01 -5.1876574170850319e+01 -1.3208975426611460e+02 0 0 0
1163 47 1 0.0000000000000000e+00 -1.9970363353584840e+01 -5.3741848273635945e+01 -1.1974492212339094e+02 0 0 0
2152 87 2 0.0000000000000000e+00 -1.0413322776534260e+00 -6.0898219795766160e+01 -1.3002453259767947e+02 0 0 0
3176 128 3 0.0000000000000000e+00 -5.7650722391519729e+00 -5.2069687849871627e+01 -1.2699382426748171e+02 0 0 0
3271 131 4 0.0000000000000000e+00 1.0412704738085250e+01 -5.8038288897736429e+01 -1.2500916685051222e+02 0 0 0
3270 131 4 0.0000000000000000e+00 1.4680721217998846e+01 -4.9765666184137729e+01 -1.2873284605154797e+02 0 0 0
4196 168 4 0.0000000000000000e+00 -8.3807210706326742e+01 -4.0949751913052388e+01 -1.1927687235378048e+02 0 0 0
1992 80 2 0.0000000000000000e+00 -7.2082498673999950e+01 -4.4712671542456206e+01 -1.2765784893275513e+02 0 0 0
583 24 2 0.0000000000000000e+00 -6.7605354075545506e+01 -3.5095440364543926e+01 -1.2477514252281388e+02 0 0 0
3995 160 4 0.0000000000000000e+00 -5.6036907840428910e+01 -3.6996190871457408e+01 -1.2091455278550401e+02 0 0 0
1667 67 2 0.0000000000000000e+00 -5.1894451217395037e+01 -4.7702940587664195e+01 -1.2354105140831970e+02 0 0 0
3996 160 4 0.0000000000000000e+00 -4.7132373585121137e+01 -3.9824971535433107e+01 -1.2456034804770341e+02 0 0 0
3997 160 4 0.0000000000000000e+00 -3.8961397581392390e+01 -4.4344790732989530e+01 -1.2062657458767606e+02 0 0 0
578 24 2 0.0000000000000000e+00 -2.5632197977340660e+01 -4.3884118523237646e+01 -1.3029222001885574e+02 0 0 0
579 24 2 0.0000000000000000e+00 -3.3933499518693232e+01 -3.8757819961612611e+01 -1.2919164497639093e+02 0 0 0
3178 128 4 0.0000000000000000e+00 -1.6146679924206090e+01 -3.6840199885985214e+01 -1.3152401645995045e+02 0 0 0
1164 47 2 0.0000000000000000e+00 -1.5482388473480546e+01 -4.4470965674224125e+01 -1.2030851320814261e+02 0 0 0
3177 128 4 0.0000000000000000e+00 -9.6441058867656348e+00 -4.4410639792497605e+01 -1.3256686939017538e+02 0 0 0
2155 87 2 0.0000000000000000e+00 1.1728455009726463e+01 -4.0115219632338160e+01 -1.3321791146996040e+02 0 0 0
3086 124 4 0.0000000000000000e+00 7.3518812399035838e+00 -3.7505035910266869e+01 -1.1997421570201479e+02 0 0 0
4200 168 3 0.0000000000000000e+00 -1.1273997787303706e+02 -3.2500675064134604e+01 -1.3319020566981678e+02 0 0 0
4199 168 4 0.0000000000000000e+00 -1.0802491913446332e+02 -2.6583041307426502e+01 -1.2658827185392011e+02 0 0 0
4198 168 4 0.0000000000000000e+00 -9.9196650388926344e+01 -2.8502645397183905e+01 -1.2249880395947524e+02 0 0 0
3074 123 4 0.0000000000000000e+00 -9.3281776978677627e+01 -2.1900175497640504e+01 -1.2690798444286253e+02 0 0 0
3073 123 4 0.0000000000000000e+00 -8.4470661911691948e+01 -2.6197231315506084e+01 -1.2497855544740942e+02 0 0 0
4197 168 4 0.0000000000000000e+00 -9.1159404200907218e+01 -3.4179073868722632e+01 -1.2133853687442377e+02 0 0 0
3072 123 4 0.0000000000000000e+00 -7.7284925554577029e+01 -2.8509933249417156e+01 -1.3189731484556415e+02 0 0 0
4478 180 4 0.0000000000000000e+00 -6.4826442164235857e+01 -2.2431523410864322e+01 -1.3334019487104652e+02 0 0 0
582 24 1 0.0000000000000000e+00 -6.0925133643314325e+01 -3.1690448092334503e+01 -1.3144039665692910e+02 0 0 0
3626 146 3 0.0000000000000000e+00 -5.7856169769830991e+01 -2.3918680975616965e+01 -1.2460042991518759e+02 0 0 0
580 24 2 0.0000000000000000e+00 -4.0518782643882425e+01 -3.0786566810325656e+01 -1.3050002924113406e+02 0 0 0
581 24 2 0.0000000000000000e+00 -5.0450782349545818e+01 -3.1818459213907772e+01 -1.3153945735814270e+02 0 0 0
2072 83 2 0.0000000000000000e+00 -2.7362850568366433e+01 -2.4485967994077864e+01 -1.2685897991593369e+02 0 0 0
3160 127 4 0.0000000000000000e+00 -3.7949249224845438e+01 -2.1051831487223787e+01 -1.2742690268225992e+02 0 0 0
1166 47 2 0.0000000000000000e+00 -1.7200383382243722e+01 -2.6441657352298524e+01 -1.2082122964816001e+02 0 0 0
1840 74 2 0.0000000000000000e+00 -8.7952034530902488e+00 -2.9108858818759586e+01 -1.2625551940431984e+02 0 0 0
1835 74 2 0.0000000000000000e+00 5.7961530593693915e+00 -2.6569103014090658e+01 -1.2747408562052776e+02 0 0 0
2157 87 1 0.0000000000000000e+00 1.6665033992313059e+01 -2.4776176847678045e+01 -1.2252566397413152e+02 0 0 0
2156 87 2 0.0000000000000000e+00 1.6724739540526983e+01 -3.3005271732433840e+01 -1.2782776071841047e+02 0 0 0
3075 123 3 0.0000000000000000e+00 -1.0145750011544615e+02 -1.5857473255415208e+01 -1.2501161678156923e+02 0 0 0
4477 180 4 0.0000000000000000e+00 -7.0188290416203174e+01 -1.3859002686017696e+01 -1.3143999528619690e+02 0 0 0
3627 146 4 0.0000000000000000e+00 -5.7113155338615400e+01 -1.6262432320721473e+01 -1.3101971022015343e+02 0 0 0
2170 87 2 0.0000000000000000e+00 -6.0214730281996900e+01 -1.3631232653452436e+01 -1.2160239996630946e+02 0 0 0
3161 127 4 0.0000000000000000e+00 -3.9098826761860160e+01 -1.0926501089330317e+01 -1.2766300288615227e+02 0 0 0
3159 127 4 0.0000000000000000e+00 -4.3582470457337209e+01 -1.6506262242186452e+01 -1.2035279042250860e+02 0 0 0
2073 83 2 0.0000000000000000e+00 -2.5467612706704784e+01 -1.7862953600863154e+01 -1.1981907099175096e+02 0 0 0
1167 47 2 0.0000000000000000e+00 -1.5148178477890589e+01 -1.7122335437135462e+01 -1.2329400960360715e+02 0 0 0
1168 47 2 0.0000000000000000e+00 -7.3264113626339498e+00 -1.0310123650940229e+01 -1.2339745013483477e+02 0 0 0
1169 47 1 0.0000000000000000e+00 2.0977241569792473e+00 -1.0774246079756866e+01 -1.2064588265440092e+02 0 0 0
4785 192 4 0.0000000000000000e+00 6.2121915821561817e+00 -1.2830528544145137e+01 -1.3012869340130615e+02 0 0 0
1983 80 2 0.0000000000000000e+00 -1.0301487903754844e+02 -1.4594831226132878e+00 -1.3260523747971047e+02 0 0 0
1982 80 1 0.0000000000000000e+00 -1.0416756004686017e+02 -5.1833052284251186e+00 -1.2346754223309233e+02 0 0 0
2057 83 1 0.0000000000000000e+00 -1.0289624511246224e+02 4.6961689205743040e+00 -1.2038899409647019e+02 0 0 0
2702 109 4 0.0000000000000000e+00 -8.6034855580397817e+01 -2.3864475442769710e+00 -1.2902888855144889e+02 0 0 0
2701 109 3 0.0000000000000000e+00 -9.3111380134533690e+01 3.2899778774167632e+00 -1.2470205262239266e+02 0 0 0
2703 109 4 0.0000000000000000e+00 -7.6113442089103316e+01 -3.4579733559066961e+00 -1.2614329731714153e+02 0 0 0
2704 109 4 0.0000000000000000e+00 -6.9607646855389916e+01 2.4163424508488802e+00 -1.2182845667690600e+02 0 0 0
2171 87 2 0.0000000000000000e+00 -5.9778119946018244e+01 -6.5437580592896660e+00 -1.2929241080170488e+02 0 0 0
4525 181 3 0.0000000000000000e+00 -5.5238683638644261e+01 2.5702884129725634e+00 -1.2425003891324111e+02 0 0 0
3162 127 4 0.0000000000000000e+00 -4.4698032424638377e+01 -6.7662036741802902e+00 -1.2041133224347682e+02 0 0 0
4524 181 4 0.0000000000000000e+00 -4.5561828825479502e+01 3.2715906423166361e+00 -1.2586103625323886e+02 0 0 0
3631 146 4 0.0000000000000000e+00 -3.5873965950331808e+01 -1.1157600011457642e+00 -1.2641352903506498e+02 0 0 0
2018 81 2 0.0000000000000000e+00 -2.9430984345071476e+01 5.3105430186343439e+00 -1.2368129966594417e+02 0 0 0
4484 180 4 0.0000000000000000e+00 -2.6529611550131516e+01 -6.4973465794137963e+00 -1.2929318777804409e+02 0 0 0
4485 180 4 0.0000000000000000e+00 -2.3107686456635189e+01 2.5370085763437444e+00 -1.3018726997963770e+02 0 0 0
2996 120 4 0.0000000000000000e+00 -1.3190028613811664e+01 -6.1701606019237412e+00 -1.3041773427358555e+02 0 0 0
2995 120 4 0.0000000000000000e+00 -1.4984882444316504e+01 1.6546511604962519e+00 -1.2431453801689055e+02 0 0 0
1058 43 2 0.0000000000000000e+00 -6.0140617758957253e+00 3.3072339747556709e+00 -1.3167090625531867e+02 0 0 0
4786 192 4 0.0000000000000000e+00 1.4384732684812351e+00 -4.0469918377057157e+00 -1.2770576379965473e+02 0 0 0
409 17 2 0.0000000000000000e+00 1.3682167271863703e+01 -6.1656282486005864e-01 -1.3065659812902899e+02 0 0 0
410 17 2 0.0000000000000000e+00 9.5980136895264696e+00 -3.8515719868003151e+00 -1.2266329621432843e+02 0 0 0
2059 83 2 0.0000000000000000e+00 -1.1331218194499141e+02 1.6112039889043835e+01 -1.3124675936401201e+02 0 0 0