LAMMPS data file via write_data, version 5 Jun 2019, timestep = 360000000

5000 atoms
4 atom types
5297 bonds
3 bond types
4600 angles
2 angle types

-2.5000000000000000e+02 2.5000000000000000e+02 xlo xhi
-2.5000000000000000e+02 2.5000000000000000e+02 ylo yhi
-2.5000000000000000e+02 2.5000000000000000e+02 zlo zhi

Masses

1 1000
2 1000
3 1000
4 1000

Pair Coeffs # lj/cut

1 0.3 10
2 0.3 10
3 0.3 10
4 0.3 10

Bond Coeffs # harmonic

1 3 10
2 3 10
3 3 11.22

Angle Coeffs # cosine

1 2
2 2

Atoms # full

1398 56 2 0.0000000000000000e+00 -9.5837780356444227e+01 4.6528598062198284e+01 -2.1091738381975642e+02 0 0 0
1399 56 2 0.0000000000000000e+00 -8.6254998074828293e+01 4.5660392622836767e+01 -2.1420509841835781e+02 0 0 0
1396 56 2 0.0000000000000000e+00 -1.0755385109582210e+02 4.4574022769127907e+01 -1.9456468425787506e+02 0 0 0
1397 56 2 0.0000000000000000e+00 -1.0177759544119473e+02 4.7337237126557916e+01 -2.0265889496466119e+02 0 0 0
1400 56 1 0.0000000000000000e+00 -8.5484291778499582e+01 5.3395552219328671e+01 -2.0709960729917529e+02 0 0 0
3051 123 3 0.0000000000000000e+00 -8.1192692539028101e+01 4.8464139927567196e+01 -1.9803325394173970e+02 0 0 0
3053 123 4 0.0000000000000000e+00 -6.6032001129748096e+01 4.2868708049824392e+01 -1.8899578880600822e+02 0 0 0
1395 56 2 0.0000000000000000e+00 -1.1055515631122790e+02 4.5083807176483241e+01 -1.8482559088047890e+02 0 0 0
3052 123 4 0.0000000000000000e+00 -7.5924790983177971e+01 4.3677972844490185e+01 -1.9097041109237591e+02 0 0 0
2017 81 2 0.0000000000000000e+00 -7.4128204526197607e+01 2.7510685752198349e+01 -1.7021552778684870e+02 0 0 0
2018 81 2 0.0000000000000000e+00 -6.3726804750184456e+01 2.7573456745924055e+01 -1.7089843675492509e+02 0 0 0
3416 137 4 0.0000000000000000e+00 -7.9490108350975788e+01 3.9979184463370672e+01 -1.6947414316775257e+02 0 0 0
3415 137 4 0.0000000000000000e+00 -7.0826739264175103e+01 3.9880991705809123e+01 -1.7393750647320417e+02 0 0 0
1394 56 1 0.0000000000000000e+00 -1.1529493686513042e+02 5.1000960134151818e+01 -1.7891805419846878e+02 0 0 0
4401 177 3 0.0000000000000000e+00 -1.1133872876108261e+02 5.5288100539121395e+01 -1.6976654597107705e+02 0 0 0
3414 137 4 0.0000000000000000e+00 -6.1951352381320639e+01 4.5445992403742046e+01 -1.7601991374413572e+02 0 0 0
1393 56 2 0.0000000000000000e+00 -1.1671409096002319e+02 6.1230714014050250e+01 -1.7769997984983027e+02 0 0 0
1392 56 2 0.0000000000000000e+00 -1.1886105056557004e+02 7.0646202002284923e+01 -1.7456598334954671e+02 0 0 0
4402 177 4 0.0000000000000000e+00 -1.0250543489971317e+02 5.9302137825124994e+01 -1.7141743027455101e+02 0 0 0
4403 177 4 0.0000000000000000e+00 -9.2880464566317471e+01 6.1253950028421308e+01 -1.7232741881219079e+02 0 0 0
4404 177 4 0.0000000000000000e+00 -8.3706124801226736e+01 6.4890269135113755e+01 -1.7539623999455497e+02 0 0 0
4405 177 4 0.0000000000000000e+00 -7.4621010554316328e+01 6.8434320179037428e+01 -1.7194068191347426e+02 0 0 0
2065 83 2 0.0000000000000000e+00 -7.7081105770806175e+01 -9.8695545804078559e+00 -1.5274712462379065e+02 0 0 0
2015 81 2 0.0000000000000000e+00 -8.2785355152718793e+01 2.5715299612204291e+01 -1.5446729212519006e+02 0 0 0
3417 137 4 0.0000000000000000e+00 -8.7579292512812842e+01 4.2234904922299052e+01 -1.6487308130928386e+02 0 0 0
3418 137 4 0.0000000000000000e+00 -9.1612176835656555e+01 3.6315970828813839e+01 -1.5721941950017717e+02 0 0 0
2016 81 2 0.0000000000000000e+00 -7.9820228416572959e+01 3.0985495256164192e+01 -1.6251454896806666e+02 0 0 0
4483 180 4 0.0000000000000000e+00 -6.9308285916269597e+01 3.9858878400781443e+01 -1.5368278617215111e+02 0 0 0
4482 180 3 0.0000000000000000e+00 -6.6282681493519377e+01 2.9956530426788230e+01 -1.5204089973329926e+02 0 0 0
2231 90 2 0.0000000000000000e+00 -9.3703804251734866e+01 4.7058988334530945e+01 -1.5368335089994812e+02 0 0 0
2232 90 1 0.0000000000000000e+00 -8.7689599025223018e+01 5.3440823811259371e+01 -1.5845247769013883e+02 0 0 0
4484 180 4 0.0000000000000000e+00 -7.4509939059925500e+01 4.8946394370889202e+01 -1.5419231586238413e+02 0 0 0
2235 90 2 0.0000000000000000e+00 -5.9053930089596705e+01 5.3113908070602427e+01 -1.6081985077799860e+02 0 0 0
2234 90 2 0.0000000000000000e+00 -6.8359179263294379e+01 5.6875370458296373e+01 -1.5891869670567488e+02 0 0 0
2903 117 4 0.0000000000000000e+00 -1.1350954565056406e+02 6.7118752407178647e+01 -1.5908223747639875e+02 0 0 0
2902 117 4 0.0000000000000000e+00 -1.0317626969684144e+02 6.6366336185491491e+01 -1.6105997157066534e+02 0 0 0
2901 117 3 0.0000000000000000e+00 -9.4495674005456593e+01 6.1719689042217524e+01 -1.5939917155311500e+02 0 0 0
4487 180 4 0.0000000000000000e+00 -8.8885429061865125e+01 6.9786564557965846e+01 -1.5554626730897755e+02 0 0 0
2233 90 2 0.0000000000000000e+00 -7.8093990206349901e+01 5.7243163130375045e+01 -1.5702236770390314e+02 0 0 0
2451 99 1 0.0000000000000000e+00 -8.3108007198534892e+01 6.7723007070998420e+01 -1.6453680442563393e+02 0 0 0
4406 177 4 0.0000000000000000e+00 -7.1810038857668928e+01 6.7457502244708806e+01 -1.6217197497442541e+02 0 0 0
4471 179 4 0.0000000000000000e+00 -5.9986074196226959e+01 6.0128280877446009e+01 -1.5331689922788374e+02 0 0 0
2066 83 2 0.0000000000000000e+00 -6.9156534654989599e+01 -1.5720850655327755e+01 -1.5012915348294598e+02 0 0 0
2063 83 1 0.0000000000000000e+00 -8.7617793404775995e+01 -3.2313710306065304e+00 -1.3872558961267265e+02 0 0 0
2064 83 2 0.0000000000000000e+00 -8.1783546997814298e+01 -8.6514081862150505e+00 -1.4429095534294902e+02 0 0 0
2067 83 2 0.0000000000000000e+00 -6.9263860134247210e+01 -5.4374351819500859e+00 -1.4755260800339443e+02 0 0 0
4451 179 3 0.0000000000000000e+00 -6.2694724317479228e+01 -5.4214725355733790e+00 -1.3887554179717952e+02 0 0 0
2012 81 2 0.0000000000000000e+00 -1.0114676545761003e+02 1.4742033216822209e+01 -1.3951241750956805e+02 0 0 0
2062 83 2 0.0000000000000000e+00 -9.2137089001399715e+01 5.8032635262388022e+00 -1.3829604570662036e+02 0 0 0
2068 83 2 0.0000000000000000e+00 -6.9062495998087400e+01 3.3215164624715978e+00 -1.4184691851599399e+02 0 0 0
2010 81 2 0.0000000000000000e+00 -1.1490808517597755e+02 2.5670056959675705e+01 -1.3885686718260922e+02 0 0 0
2011 81 2 0.0000000000000000e+00 -1.1082137663423185e+02 1.6920807017812809e+01 -1.3877796126012481e+02 0 0 0
2013 81 1 0.0000000000000000e+00 -9.1245410284178149e+01 1.8880819930913603e+01 -1.4030686261539151e+02 0 0 0
2014 81 2 0.0000000000000000e+00 -8.3108807588584639e+01 2.0460707088313793e+01 -1.4587745931860852e+02 0 0 0
1051 43 1 0.0000000000000000e+00 -6.6020079588593319e+01 1.9126043870232756e+01 -1.5066676246515289e+02 0 0 0
4481 180 4 0.0000000000000000e+00 -7.1138447729184463e+01 2.6831998776069803e+01 -1.4373139023913421e+02 0 0 0
1052 43 2 0.0000000000000000e+00 -6.0092047371516180e+01 1.7908983896921541e+01 -1.4296730183833529e+02 0 0 0
2229 90 2 0.0000000000000000e+00 -1.0948596252512407e+02 3.7764819094579934e+01 -1.4850091167270509e+02 0 0 0
2230 90 2 0.0000000000000000e+00 -9.9950259041500587e+01 4.0798049941593632e+01 -1.4924145476633268e+02 0 0 0
2882 116 3 0.0000000000000000e+00 -1.0655896135693060e+02 3.9324293578602870e+01 -1.3891110516005585e+02 0 0 0
3420 137 4 0.0000000000000000e+00 -9.3873258049653273e+01 2.9595209842683424e+01 -1.3908847966438788e+02 0 0 0
3419 137 3 0.0000000000000000e+00 -9.1006675035020535e+01 3.3475075429718835e+01 -1.4763813200606376e+02 0 0 0
1125 45 1 0.0000000000000000e+00 -7.9368284714352498e+01 3.1378342906302017e+01 -1.4743469393275203e+02 0 0 0
1124 45 2 0.0000000000000000e+00 -8.2023567780935196e+01 4.1264972858031705e+01 -1.4868536721609360e+02 0 0 0
4474 179 4 0.0000000000000000e+00 -6.8363900061218317e+01 3.6090480208981319e+01 -1.3971004820930946e+02 0 0 0
2021 81 2 0.0000000000000000e+00 -5.8839794190803566e+01 4.2896877127005958e+01 -1.4997073990756169e+02 0 0 0
2022 81 2 0.0000000000000000e+00 -5.7585691509667470e+01 4.2643204959339194e+01 -1.3986252711951300e+02 0 0 0
2228 90 2 0.0000000000000000e+00 -1.1627642005146129e+02 4.4987004849787212e+01 -1.5046843358411286e+02 0 0 0
2227 90 2 0.0000000000000000e+00 -1.1550511529418891e+02 4.5465311477556234e+01 -1.4044904514521662e+02 0 0 0
2883 116 4 0.0000000000000000e+00 -1.0642658131889624e+02 4.8524426065376595e+01 -1.4295501660668518e+02 0 0 0
2884 116 4 0.0000000000000000e+00 -1.0069840929204454e+02 5.3946999129098863e+01 -1.4819547367107194e+02 0 0 0
1123 45 2 0.0000000000000000e+00 -8.7934494668428698e+01 4.7498143136745121e+01 -1.4417783043858506e+02 0 0 0
1122 45 2 0.0000000000000000e+00 -9.1668656486666364e+01 5.4184732277977837e+01 -1.3786867837817229e+02 0 0 0
4485 180 4 0.0000000000000000e+00 -8.1620604880584025e+01 5.4099122264338590e+01 -1.4875732126085492e+02 0 0 0
4473 179 4 0.0000000000000000e+00 -7.0018087054449765e+01 4.4654305111278219e+01 -1.4460390003277152e+02 0 0 0
4472 179 4 0.0000000000000000e+00 -6.5639644111708790e+01 5.2879868395575066e+01 -1.4914563299195191e+02 0 0 0
3424 137 4 0.0000000000000000e+00 -6.4701061220286604e+01 5.2187047381672919e+01 -1.3896560575739767e+02 0 0 0
1553 63 2 0.0000000000000000e+00 -1.0214004612524558e+02 6.7791260262297470e+01 -1.4413997610608507e+02 0 0 0
1554 63 2 0.0000000000000000e+00 -1.0855545501509668e+02 6.1613476360243219e+01 -1.3884893322525667e+02 0 0 0
2885 116 4 0.0000000000000000e+00 -9.3231050649339679e+01 6.0700243898470852e+01 -1.4805010182326944e+02 0 0 0
4407 177 3 0.0000000000000000e+00 -7.2779147693016029e+01 6.8852222803965873e+01 -1.5165101051235237e+02 0 0 0
2886 116 4 0.0000000000000000e+00 -8.4665912039960844e+01 6.1952871841299569e+01 -1.4221105208724279e+02 0 0 0
4486 180 4 0.0000000000000000e+00 -8.2510435304457545e+01 6.4298571637284923e+01 -1.5108673083895144e+02 0 0 0
2887 116 4 0.0000000000000000e+00 -7.6072628163226923e+01 6.6702870863354406e+01 -1.3898954804867299e+02 0 0 0
2888 116 3 0.0000000000000000e+00 -6.8419847154166646e+01 6.3027279016159362e+01 -1.4334623331750450e+02 0 0 0
2889 116 4 0.0000000000000000e+00 -5.8787675756751348e+01 6.4803501403950079e+01 -1.4395591494583110e+02 0 0 0
1986 80 2 0.0000000000000000e+00 -7.8472523824898261e+01 -3.5953667717232605e+01 -1.2720366207162481e+02 0 0 0
3072 123 4 0.0000000000000000e+00 -9.1856365622671248e+01 -1.9237089267275330e+01 -1.2585505540555357e+02 0 0 0
3071 123 4 0.0000000000000000e+00 -8.4269727498736145e+01 -1.4559728370462331e+01 -1.3047332213723726e+02 0 0 0
3068 123 4 0.0000000000000000e+00 -5.9553259771578567e+01 -2.3694457342375550e+01 -1.2584124716708885e+02 0 0 0
3069 123 3 0.0000000000000000e+00 -6.7143084337073475e+01 -1.7170424484034395e+01 -1.2506677149443229e+02 0 0 0
4750 190 3 0.0000000000000000e+00 -1.0756327860759762e+02 -1.4733364870737140e+00 -1.3159072456344194e+02 0 0 0
1976 80 1 0.0000000000000000e+00 -1.0269305915803817e+02 -9.2377392605065065e+00 -1.2472370474801453e+02 0 0 0
4476 180 3 0.0000000000000000e+00 -9.5506818378918723e+01 -9.3058656083638525e+00 -1.3248971949584688e+02 0 0 0
4477 180 4 0.0000000000000000e+00 -9.2210557373514348e+01 -7.8280486950995387e-01 -1.2757193094508780e+02 0 0 0
3070 123 4 0.0000000000000000e+00 -7.4455828034395140e+01 -1.2294730753857593e+01 -1.3048286587504825e+02 0 0 0
2173 87 2 0.0000000000000000e+00 -8.1485244206058695e+01 8.9940117113416407e-01 -1.2405152363690279e+02 0 0 0
4749 190 4 0.0000000000000000e+00 -1.1653614896276105e+02 1.4901988547443574e+00 -1.2765074616656143e+02 0 0 0
4748 190 4 0.0000000000000000e+00 -1.2063449752402637e+02 1.0486089502218192e+01 -1.2389205753895986e+02 0 0 0
2061 83 2 0.0000000000000000e+00 -9.9254157197487970e+01 7.7977845002609731e+00 -1.3163267318694091e+02 0 0 0
4478 180 4 0.0000000000000000e+00 -8.9525757040989063e+01 8.5784519718253733e+00 -1.2965562868798963e+02 0 0 0
2174 87 2 0.0000000000000000e+00 -7.9253121000356899e+01 1.0724509433559035e+01 -1.2589446073455177e+02 0 0 0
2069 83 1 0.0000000000000000e+00 -6.1889057674178787e+01 4.8816195359103336e+00 -1.3493892902579515e+02 0 0 0
2070 83 2 0.0000000000000000e+00 -6.6645139205913608e+01 8.2155413167632840e+00 -1.2691179058895420e+02 0 0 0
2880 116 4 0.0000000000000000e+00 -1.1217184830716457e+02 2.3149950213405315e+01 -1.2941144228390593e+02 0 0 0
2975 119 3 0.0000000000000000e+00 -9.8168961512484103e+01 2.0398346060612159e+01 -1.3112734886259136e+02 0 0 0
2974 119 4 0.0000000000000000e+00 -9.1405720458408538e+01 2.7161969977170244e+01 -1.2803181500273178e+02 0 0 0
4479 180 4 0.0000000000000000e+00 -8.5494004571069169e+01 1.7258981038206286e+01 -1.3319894656535487e+02 0 0 0
2706 109 4 0.0000000000000000e+00 -9.1667255106705213e+01 1.6709314911625921e+01 -1.2431231782099732e+02 0 0 0
4480 180 4 0.0000000000000000e+00 -7.7217082662136008e+01 2.2181828391878760e+01 -1.3695696351778872e+02 0 0 0
2175 87 1 0.0000000000000000e+00 -7.6151381725513886e+01 2.0752638167190000e+01 -1.2431415881073849e+02 0 0 0
2025 81 1 0.0000000000000000e+00 -6.3856958003210906e+01 1.8734441830615456e+01 -1.3176466329045667e+02 0 0 0
2024 81 2 0.0000000000000000e+00 -5.7742925356962537e+01 2.6587561186843697e+01 -1.3328611984462808e+02 0 0 0
4475 179 3 0.0000000000000000e+00 -6.9444098171922178e+01 2.8268885053407597e+01 -1.3304623203469492e+02 0 0 0
2006 81 2 0.0000000000000000e+00 -1.4816743802658689e+02 4.1375110033277018e+01 -1.2627499918853300e+02 0 0 0
2007 81 1 0.0000000000000000e+00 -1.4040572574729819e+02 3.5179311583225434e+01 -1.2557818443384883e+02 0 0 0
2008 81 2 0.0000000000000000e+00 -1.3205436437809530e+02 3.1267962110219418e+01 -1.3075259225392983e+02 0 0 0
4075 163 3 0.0000000000000000e+00 -1.3033099663850132e+02 4.0195293352172932e+01 -1.2564786722738030e+02 0 0 0
2009 81 2 0.0000000000000000e+00 -1.2194967760815859e+02 2.9020956489045634e+01 -1.3300010123187900e+02 0 0 0
2881 116 4 0.0000000000000000e+00 -1.0826062615450566e+02 3.0756070958942068e+01 -1.3356950080365479e+02 0 0 0
1559 63 2 0.0000000000000000e+00 -9.8050608945448303e+01 3.9360834944565219e+01 -1.2943854209348345e+02 0 0 0
1560 63 2 0.0000000000000000e+00 -9.0175805955982511e+01 4.0188524680366136e+01 -1.3560016540471619e+02 0 0 0
3422 137 4 0.0000000000000000e+00 -7.8939053088708690e+01 4.1199961312570885e+01 -1.3724418014262349e+02 0 0 0
3421 137 4 0.0000000000000000e+00 -8.4044101351593355e+01 3.1895361713028542e+01 -1.3767607398587603e+02 0 0 0
2972 119 4 0.0000000000000000e+00 -7.5602807675245629e+01 3.8810301704565724e+01 -1.2577035512821612e+02 0 0 0
2973 119 4 0.0000000000000000e+00 -8.3356293185473632e+01 3.2589111559925790e+01 -1.2763363293628986e+02 0 0 0
1556 63 2 0.0000000000000000e+00 -1.1864483417775574e+02 5.0718745572329084e+01 -1.2553834051862512e+02 0 0 0
1555 63 2 0.0000000000000000e+00 -1.1571851455129703e+02 5.6090465592026646e+01 -1.3352798991492946e+02 0 0 0
2226 90 1 0.0000000000000000e+00 -1.1240995376271832e+02 4.4296456275483010e+01 -1.3085357621531344e+02 0 0 0
3423 137 4 0.0000000000000000e+00 -7.3756514769376736e+01 4.9766102512467235e+01 -1.3614700012719280e+02 0 0 0
1561 63 2 0.0000000000000000e+00 -8.4944908864323594e+01 4.5477267937115847e+01 -1.2812292074072542e+02 0 0 0
2971 119 4 0.0000000000000000e+00 -6.6886638772398570e+01 4.3189322818192288e+01 -1.2865124555710463e+02 0 0 0
1424 57 2 0.0000000000000000e+00 -1.0542451096621996e+02 6.6515443287047120e+01 -1.2771777761774604e+02 0 0 0
1423 57 2 0.0000000000000000e+00 -1.0028317526043419e+02 5.8901482680238878e+01 -1.2477951075153545e+02 0 0 0
4996 200 4 0.0000000000000000e+00 -9.1320455520532803e+01 6.7614635668791152e+01 -1.3603545817828095e+02 0 0 0
1121 45 2 0.0000000000000000e+00 -8.8580498108843742e+01 5.8969122634004343e+01 -1.2962136031479832e+02 0 0 0
1575 63 1 0.0000000000000000e+00 -6.8980007427275922e+01 5.9758938688919478e+01 -1.3279796072195077e+02 0 0 0
1574 63 2 0.0000000000000000e+00 -7.0394225906232037e+01 6.8246841196444180e+01 -1.2825870101520340e+02 0 0 0
1982 80 1 0.0000000000000000e+00 -1.0300923247896110e+02 -4.2221671543655745e+01 -1.1018980395895503e+02 0 0 0
1984 80 2 0.0000000000000000e+00 -8.7827282783052624e+01 -4.8825517841289418e+01 -1.2224330204240040e+02 0 0 0
1983 80 2 0.0000000000000000e+00 -9.4125063953478318e+01 -4.4562999358526142e+01 -1.1463145713789743e+02 0 0 0
1985 80 2 0.0000000000000000e+00 -7.7974347474269308e+01 -4.5482395581056380e+01 -1.2333736440921179e+02 0 0 0
3074 123 4 0.0000000000000000e+00 -9.2346587960236604e+01 -3.3158954130514061e+01 -1.1242317734703174e+02 0 0 0
3073 123 4 0.0000000000000000e+00 -9.2022798696522258e+01 -2.6988237145164000e+01 -1.2037442081890879e+02 0 0 0
1987 80 2 0.0000000000000000e+00 -7.5850389274113141e+01 -2.7238724189184090e+01 -1.2220303581827103e+02 0 0 0
585 24 2 0.0000000000000000e+00 -8.1422440560564482e+01 -1.8650100634875148e+01 -1.1306317319994089e+02 0 0 0
1988 80 1 0.0000000000000000e+00 -7.1076524810145173e+01 -2.0608249435965106e+01 -1.1650040952968975e+02 0 0 0
4200 168 3 0.0000000000000000e+00 -6.2142970404366856e+01 -2.5055969446062687e+01 -1.1149734939072808e+02 0 0 0
2703 109 4 0.0000000000000000e+00 -1.0393950357441958e+02 -3.3206594971549741e+00 -1.1303691904068943e+02 0 0 0
1977 80 2 0.0000000000000000e+00 -9.5055186787582628e+01 -1.0573099028514752e+01 -1.1779513219942531e+02 0 0 0
2172 87 2 0.0000000000000000e+00 -8.5374452792322217e+01 -2.6923262698818906e+00 -1.1591309773482575e+02 0 0 0
2704 109 4 0.0000000000000000e+00 -9.5408525839351753e+01 8.5575598311248308e-02 -1.1609645841291324e+02 0 0 0
584 24 2 0.0000000000000000e+00 -8.1918109889996771e+01 -1.2429173247101909e+01 -1.2151254170664468e+02 0 0 0
583 24 2 0.0000000000000000e+00 -7.4109925346842743e+01 -5.5698760548394368e+00 -1.2135604381502661e+02 0 0 0
582 24 1 0.0000000000000000e+00 -6.4724578331163030e+01 -6.6425832380395544e+00 -1.2309261491058265e+02 0 0 0
2876 116 3 0.0000000000000000e+00 -1.3426414006982716e+02 9.7454278044973091e+00 -1.1373595064953149e+02 0 0 0
2060 83 2 0.0000000000000000e+00 -1.0507984337743868e+02 7.5582467575965619e+00 -1.2333636089203888e+02 0 0 0
2059 83 2 0.0000000000000000e+00 -1.0314832896575115e+02 7.6843052226030411e+00 -1.1416673665149352e+02 0 0 0
2705 109 4 0.0000000000000000e+00 -9.0160783744654296e+01 7.9959795751406197e+00 -1.1874195582335078e+02 0 0 0
2071 83 2 0.0000000000000000e+00 -6.6608704986613731e+01 9.9626903294897389e+00 -1.1721425607556745e+02 0 0 0
4746 190 4 0.0000000000000000e+00 -1.3351136750384651e+02 2.4709691338976523e+01 -1.2207758044744999e+02 0 0 0
2877 116 4 0.0000000000000000e+00 -1.3132039894893686e+02 1.9637615504471167e+01 -1.1404635291668055e+02 0 0 0
4747 190 4 0.0000000000000000e+00 -1.2495269323793697e+02 1.9659514713307274e+01 -1.2285312623530635e+02 0 0 0
2878 116 4 0.0000000000000000e+00 -1.2495868779894062e+02 2.7131458693428385e+01 -1.1617621753228725e+02 0 0 0
2879 116 4 0.0000000000000000e+00 -1.1608215693715070e+02 2.6467504697704769e+01 -1.2094150949428860e+02 0 0 0
1418 57 2 0.0000000000000000e+00 -9.9234298054320988e+01 1.7135445200884821e+01 -1.1086193669027811e+02 0 0 0
1419 57 1 0.0000000000000000e+00 -9.4057701719353076e+01 2.4697424234657909e+01 -1.1536113152253424e+02 0 0 0
2707 109 3 0.0000000000000000e+00 -8.5632921455096820e+01 1.7811569681923945e+01 -1.1623895740220301e+02 0 0 0
2072 83 2 0.0000000000000000e+00 -7.2853440039736611e+01 1.6939281410472468e+01 -1.1277948856007015e+02 0 0 0
3350 134 3 0.0000000000000000e+00 -8.1896255597322423e+01 2.7074248799595399e+01 -1.1769835879097766e+02 0 0 0
3628 146 4 0.0000000000000000e+00 -6.1454619801389256e+01 2.0629306770992542e+01 -1.1817573505579598e+02 0 0 0
3629 146 4 0.0000000000000000e+00 -6.1343352208173947e+01 2.7613066511146236e+01 -1.1129126774604849e+02 0 0 0
4745 190 4 0.0000000000000000e+00 -1.3916303504104039e+02 2.9836413838853510e+01 -1.1622560395210444e+02 0 0 0
3503 141 4 0.0000000000000000e+00 -1.2733718706381775e+02 4.0885407572228324e+01 -1.1013996384746261e+02 0 0 0
4074 163 4 0.0000000000000000e+00 -1.2250039765060670e+02 3.8606005786913578e+01 -1.2001573612631347e+02 0 0 0
4073 163 4 0.0000000000000000e+00 -1.1364211781744123e+02 3.7771280600171515e+01 -1.1548756321437615e+02 0 0 0
1420 57 2 0.0000000000000000e+00 -9.4055534677383136e+01 3.4888054432433620e+01 -1.1363796530009053e+02 0 0 0
1421 57 2 0.0000000000000000e+00 -9.3553008467814394e+01 4.2811297090130054e+01 -1.1961558952393865e+02 0 0 0
3349 134 4 0.0000000000000000e+00 -7.3201920612280603e+01 3.1391333036158489e+01 -1.1964589834542291e+02 0 0 0
3348 134 4 0.0000000000000000e+00 -6.4148766996344591e+01 3.4591123167533325e+01 -1.2224215016587860e+02 0 0 0
2005 81 2 0.0000000000000000e+00 -1.5188451338189478e+02 5.0348309907324193e+01 -1.2304566756509210e+02 0 0 0
745 30 2 0.0000000000000000e+00 -1.4029135569072130e+02 5.2896525375791214e+01 -1.1627320188362721e+02 0 0 0
744 30 1 0.0000000000000000e+00 -1.4065145848253653e+02 4.3704290369891737e+01 -1.1205197071625567e+02 0 0 0
3502 141 4 0.0000000000000000e+00 -1.2660350426496763e+02 4.8313904082353439e+01 -1.1627809269918932e+02 0 0 0
3501 141 3 0.0000000000000000e+00 -1.2004510264451444e+02 5.5339323901862642e+01 -1.1742692161278889e+02 0 0 0
1557 63 1 0.0000000000000000e+00 -1.1159988797158341e+02 4.8483827101157082e+01 -1.1852466467606151e+02 0 0 0
1558 63 2 0.0000000000000000e+00 -1.0402912679299088e+02 4.3645169466874670e+01 -1.2209154149035190e+02 0 0 0
1422 57 2 0.0000000000000000e+00 -9.3775998387834065e+01 5.2324854087556240e+01 -1.2324931762674213e+02 0 0 0
3521 141 4 0.0000000000000000e+00 -9.3076812553961190e+01 5.1682523632909309e+01 -1.1269662085994510e+02 0 0 0
1562 63 2 0.0000000000000000e+00 -8.3491705594469650e+01 5.1747802579653367e+01 -1.2017753458198314e+02 0 0 0
1588 64 1 0.0000000000000000e+00 -6.1689066975192510e+01 5.0226359357870102e+01 -1.1460895860665593e+02 0 0 0
1589 64 2 0.0000000000000000e+00 -6.9859233597238102e+01 5.3621219501301617e+01 -1.1917626615398703e+02 0 0 0
2970 119 4 0.0000000000000000e+00 -5.8603182970707046e+01 4.4584638360089038e+01 -1.2367693575190856e+02 0 0 0
2004 81 2 0.0000000000000000e+00 -1.5502528924289405e+02 5.7846078043666061e+01 -1.1790945228666685e+02 0 0 0
746 30 2 0.0000000000000000e+00 -1.3127135209358136e+02 5.7299207341252256e+01 -1.1663580130161927e+02 0 0 0
1720 69 2 0.0000000000000000e+00 -1.2746982550562885e+02 6.8664195494522488e+01 -1.1020753136886734e+02 0 0 0
1719 69 1 0.0000000000000000e+00 -1.1832745550994038e+02 6.4577469190817581e+01 -1.1317151135614753e+02 0 0 0
1718 69 2 0.0000000000000000e+00 -1.0921190945720191e+02 6.0535753633743063e+01 -1.1486021139786133e+02 0 0 0
1717 69 2 0.0000000000000000e+00 -9.9607729763891641e+01 6.1569569594926676e+01 -1.1281908557261096e+02 0 0 0
1120 45 2 0.0000000000000000e+00 -8.8433890595602747e+01 6.6590379942244851e+01 -1.2332572361812693e+02 0 0 0
1563 63 1 0.0000000000000000e+00 -8.4204642826910074e+01 5.8804466893633709e+01 -1.1274233238463374e+02 0 0 0
1591 64 2 0.0000000000000000e+00 -5.8229617793060413e+01 6.9194638770883770e+01 -1.2311540038577117e+02 0 0 0
1590 64 2 0.0000000000000000e+00 -6.3699758777158621e+01 6.0941760610593541e+01 -1.2275933700470071e+02 0 0 0
3174 127 4 0.0000000000000000e+00 -1.0742070896466271e+02 -4.5793269157200271e+01 -9.6299499572450301e+01 0 0 0
3175 127 3 0.0000000000000000e+00 -9.7664592793065211e+01 -4.1787919639244230e+01 -9.6469116454275579e+01 0 0 0
1981 80 2 0.0000000000000000e+00 -1.0193726208505610e+02 -3.2972647431697723e+01 -1.0622296131714900e+02 0 0 0
3075 123 3 0.0000000000000000e+00 -9.3484589111737094e+01 -3.9674115493529378e+01 -1.0477156834440562e+02 0 0 0
587 24 2 0.0000000000000000e+00 -9.1657850432939568e+01 -2.9313751677829504e+01 -9.9721798217817792e+01 0 0 0
2386 96 2 0.0000000000000000e+00 -7.4243587486924696e+01 -3.5008026857089973e+01 -9.6806881194576334e+01 0 0 0
2387 96 2 0.0000000000000000e+00 -8.2979443015504430e+01 -3.8570565441088739e+01 -1.0068059407218909e+02 0 0 0
4199 168 4 0.0000000000000000e+00 -6.2341164170137404e+01 -2.8186850098177747e+01 -1.0235767358226087e+02 0 0 0
1980 80 2 0.0000000000000000e+00 -1.0131587073823529e+02 -2.4215780574405468e+01 -1.0159846042608019e+02 0 0 0
1979 80 2 0.0000000000000000e+00 -9.3114451493103971e+01 -1.8653869613216724e+01 -1.0132395907939639e+02 0 0 0
586 24 2 0.0000000000000000e+00 -8.5469198278383431e+01 -2.4374627614280431e+01 -1.0601159451289176e+02 0 0 0
1989 80 2 0.0000000000000000e+00 -6.9777066833864126e+01 -1.9468812202902441e+01 -1.0672285952255714e+02 0 0 0
1990 80 2 0.0000000000000000e+00 -6.4246537337390819e+01 -1.8046663697779557e+01 -9.8412326600359421e+01 0 0 0
2702 109 4 0.0000000000000000e+00 -1.1221680305313265e+02 -4.5105478677564088e+00 -1.0799031881063502e+02 0 0 0
2057 83 1 0.0000000000000000e+00 -1.1144037803394728e+02 6.5669998851212597e-01 -9.8226432765457105e+01 0 0 0
1978 80 2 0.0000000000000000e+00 -9.3728630624934112e+01 -1.1086013617686376e+01 -1.0807620312631435e+02 0 0 0
3153 127 4 0.0000000000000000e+00 -8.7066552609327800e+01 -8.5269741941154820e+00 -1.0014757305491024e+02 0 0 0
3152 127 4 0.0000000000000000e+00 -8.9841557674391197e+01 -3.7723773373899461e-01 -1.0406782759217747e+02 0 0 0
3154 127 4 0.0000000000000000e+00 -7.7970989960996562e+01 -1.2256805278518426e+01 -9.9079794631714023e+01 0 0 0
2171 87 2 0.0000000000000000e+00 -8.2873732680056435e+01 -8.6243892973646119e+00 -1.0858845257928978e+02 0 0 0
2170 87 2 0.0000000000000000e+00 -7.3176989919525042e+01 -9.8986418048695004e+00 -1.0738658491810487e+02 0 0 0
2169 87 1 0.0000000000000000e+00 -6.3204889907325757e+01 -8.8311287351436736e+00 -1.0498596934833013e+02 0 0 0
701 29 1 0.0000000000000000e+00 -1.2675791932434724e+02 2.2286779575313824e+00 -1.0962079625994443e+02 0 0 0
702 29 2 0.0000000000000000e+00 -1.2471933464933527e+02 3.2795452929461484e+00 -9.9894468369994598e+01 0 0 0
2701 109 3 0.0000000000000000e+00 -1.1744688758947312e+02 3.8547781842574009e+00 -1.0640414738787803e+02 0 0 0
739 30 2 0.0000000000000000e+00 -1.1862443193220439e+02 1.2851384802149250e+01 -9.9839199878439018e+01 0 0 0
2058 83 2 0.0000000000000000e+00 -1.0690237646135485e+02 5.5455268358901755e+00 -1.0530136719928053e+02 0 0 0
3151 127 3 0.0000000000000000e+00 -9.7588586793118807e+01 6.1952803880195599e+00 -1.0440042168004459e+02 0 0 0
2709 109 4 0.0000000000000000e+00 -8.7819627667439192e+01 8.8222800193948530e+00 -9.9763331074315460e+01 0 0 0
3156 127 4 0.0000000000000000e+00 -7.3393732210012175e+01 2.2135075427529527e+00 -9.7152589145691195e+01 0 0 0
3157 127 3 0.0000000000000000e+00 -6.5364490247498566e+01 2.1252614935653495e+00 -1.0334574621717026e+02 0 0 0
3158 127 4 0.0000000000000000e+00 -5.7977617740143288e+01 8.6466433942539549e+00 -1.0711423817104075e+02 0 0 0
3525 141 3 0.0000000000000000e+00 -1.1844299798607649e+02 2.6926551948922771e+01 -1.0095671243186159e+02 0 0 0
738 30 1 0.0000000000000000e+00 -1.1322797245130195e+02 1.8851527400949546e+01 -1.0610603298544770e+02 0 0 0
737 30 2 0.0000000000000000e+00 -1.0622913629081995e+02 2.5774105407017345e+01 -1.0641899637658956e+02 0 0 0
1417 57 2 0.0000000000000000e+00 -1.0104545000338165e+02 1.9034232299200983e+01 -1.0102561239539922e+02 0 0 0
2708 109 4 0.0000000000000000e+00 -8.7498173535202184e+01 1.7104888614137760e+01 -1.0609835668106923e+02 0 0 0
736 30 2 0.0000000000000000e+00 -9.6670548194042894e+01 2.8575678183483287e+01 -1.0531792998442643e+02 0 0 0
2073 83 2 0.0000000000000000e+00 -6.9621731673931279e+01 2.2917952139262109e+01 -1.0436748690909722e+02 0 0 0
2074 83 2 0.0000000000000000e+00 -6.4740938729519726e+01 1.5278265525564652e+01 -1.0040978822702677e+02 0 0 0
4744 190 3 0.0000000000000000e+00 -1.4570850847358969e+02 3.3983160876804497e+01 -1.0943969961818934e+02 0 0 0
4743 190 4 0.0000000000000000e+00 -1.4489423988649085e+02 3.7018591798498846e+01 -9.9650998518596509e+01 0 0 0
742 30 2 0.0000000000000000e+00 -1.3283764349760403e+02 3.2939540176286030e+01 -9.8040701099376818e+01 0 0 0
743 30 2 0.0000000000000000e+00 -1.3708645491904940e+02 3.6737837612812370e+01 -1.0624350556169199e+02 0 0 0
3524 141 4 0.0000000000000000e+00 -1.1319621207455840e+02 3.5585409684893506e+01 -1.0089096506259807e+02 0 0 0
3504 141 4 0.0000000000000000e+00 -1.2582359426895367e+02 3.9618506980216402e+01 -1.0003460724353256e+02 0 0 0
3523 141 4 0.0000000000000000e+00 -1.0423314566153529e+02 3.8274974284448916e+01 -1.0537137664927373e+02 0 0 0
735 30 2 0.0000000000000000e+00 -9.1366023932547236e+01 3.6414596100358999e+01 -1.0311711537615201e+02 0 0 0
734 30 2 0.0000000000000000e+00 -8.3126988417962707e+01 3.4120001377383993e+01 -1.0903434115589127e+02 0 0 0
733 30 2 0.0000000000000000e+00 -7.5779104476248577e+01 3.9186552137736797e+01 -1.0457633866572246e+02 0 0 0
732 30 1 0.0000000000000000e+00 -6.6359916450577614e+01 3.8902213038594688e+01 -1.0440276075257187e+02 0 0 0
3963 159 3 0.0000000000000000e+00 -6.3355989190717025e+01 3.2935524463953982e+01 -9.5762595573367861e+01 0 0 0
3505 141 4 0.0000000000000000e+00 -1.3075589079286982e+02 4.7242174256041729e+01 -9.5790321236433016e+01 0 0 0
747 30 2 0.0000000000000000e+00 -1.2467476206367564e+02 5.6295439048875231e+01 -1.0897503313514683e+02 0 0 0
748 30 2 0.0000000000000000e+00 -1.2056362863186820e+02 4.8793621852902263e+01 -1.0443498487359425e+02 0 0 0
4072 163 4 0.0000000000000000e+00 -1.1091946162725824e+02 4.5298271132945608e+01 -1.0925613499806664e+02 0 0 0
4071 163 4 0.0000000000000000e+00 -1.0785479021867719e+02 5.5310324441121864e+01 -1.0702111990139247e+02 0 0 0
3522 141 4 0.0000000000000000e+00 -9.9875741921246828e+01 4.6057474730553210e+01 -1.0840898218994968e+02 0 0 0
3968 159 4 0.0000000000000000e+00 -1.0006940778756361e+02 5.1123930367633037e+01 -9.9712732349208736e+01 0 0 0
3967 159 4 0.0000000000000000e+00 -9.1837512962452777e+01 4.5747418875316747e+01 -9.6872459639396268e+01 0 0 0
3520 141 4 0.0000000000000000e+00 -8.6295442154808754e+01 4.6665302861254851e+01 -1.0759769681692021e+02 0 0 0
3519 141 3 0.0000000000000000e+00 -8.0344455816622514e+01 5.3730626579084159e+01 -1.0314322403461505e+02 0 0 0
3966 159 4 0.0000000000000000e+00 -8.2044014698899886e+01 4.4838553300209966e+01 -9.7149087475911486e+01 0 0 0