LAMMPS data file via write_data, version 5 Jun 2019, timestep = 330000000

5000 atoms
4 atom types
5297 bonds
3 bond types
4600 angles
2 angle types

-2.5000000000000000e+02 2.5000000000000000e+02 xlo xhi
-2.5000000000000000e+02 2.5000000000000000e+02 ylo yhi
-2.5000000000000000e+02 2.5000000000000000e+02 zlo zhi

Masses

1 1000
2 1000
3 1000
4 1000

Pair Coeffs # lj/cut

1 0.3 10
2 0.3 10
3 0.3 10
4 0.3 10

Bond Coeffs # harmonic

1 3 10
2 3 10
3 3 11.22

Angle Coeffs # cosine

1 2
2 2

Atoms # full

4464 179 4 0.0000000000000000e+00 -3.5162423614318577e+01 -6.2220799105991240e+00 -1.9660349844714503e+02 0 0 0
4466 179 4 0.0000000000000000e+00 -2.7688275064841967e+01 1.1478522716512927e+01 -2.0121051053976061e+02 0 0 0
4465 179 4 0.0000000000000000e+00 -3.2760326989351896e+01 2.9809053927286819e+00 -1.9956140862604849e+02 0 0 0
4462 179 4 0.0000000000000000e+00 -3.2771353776379129e+01 -1.7790332942602852e+01 -1.8118873639302154e+02 0 0 0
4463 179 3 0.0000000000000000e+00 -3.6806461971070014e+01 -1.4013885780089522e+01 -1.8953908094316020e+02 0 0 0
2244 90 1 0.0000000000000000e+00 -3.3922005172465560e+01 -6.4857355188895847e+00 -1.8162042767602668e+02 0 0 0
2062 83 2 0.0000000000000000e+00 -8.8769981439007253e+01 1.0002386647327231e+01 -1.8005206451711231e+02 0 0 0
2243 90 2 0.0000000000000000e+00 -2.5791161927478342e+01 -3.2399229546444713e-01 -1.8342673305144100e+02 0 0 0
3055 123 4 0.0000000000000000e+00 -3.5657539244547671e+01 7.4004818652947506e+00 -1.8586328957729293e+02 0 0 0
2242 90 2 0.0000000000000000e+00 -1.7909048746141824e+01 5.9611493716704311e+00 -1.8303053532292529e+02 0 0 0
1986 80 2 0.0000000000000000e+00 -7.0550631901345284e+01 -4.9421644005336553e+01 -1.6847017723809594e+02 0 0 0
1985 80 2 0.0000000000000000e+00 -7.9393740588797300e+01 -4.4692901230585839e+01 -1.6544493179701570e+02 0 0 0
275 11 1 0.0000000000000000e+00 -4.8318283966523182e+01 -3.5769490762920789e+01 -1.6537938825458511e+02 0 0 0
3061 123 4 0.0000000000000000e+00 -5.6555500213332103e+01 -1.7858765598504529e+01 -1.7340474920623575e+02 0 0 0
3062 123 4 0.0000000000000000e+00 -5.1930084004215210e+01 -2.4754002085517733e+01 -1.6716001695694942e+02 0 0 0
4461 179 4 0.0000000000000000e+00 -2.9806457154161023e+01 -2.0856036925352221e+01 -1.7162956784821100e+02 0 0 0
3060 123 4 0.0000000000000000e+00 -5.9854004254877367e+01 -8.3763666561026255e+00 -1.7415663330572710e+02 0 0 0
3058 123 4 0.0000000000000000e+00 -5.2843051907272788e+01 -1.2361749942309661e+00 -1.6500550688207710e+02 0 0 0
2245 90 2 0.0000000000000000e+00 -4.1034230893377668e+01 -7.2351506332778088e+00 -1.7524151552626930e+02 0 0 0
2246 90 2 0.0000000000000000e+00 -4.0702017274852842e+01 -8.7839634618049001e+00 -1.6577655448361892e+02 0 0 0
2061 83 2 0.0000000000000000e+00 -9.7358628670927786e+01 6.4956568446861489e+00 -1.7602530667443193e+02 0 0 0
2060 83 2 0.0000000000000000e+00 -1.0789587076495346e+02 8.5198671829271753e+00 -1.7341649074739735e+02 0 0 0
3059 123 4 0.0000000000000000e+00 -6.0606061778418088e+01 1.1399931294241441e+00 -1.7142343469978061e+02 0 0 0
401 17 1 0.0000000000000000e+00 -5.3705592448004381e+01 8.9399482998994024e+00 -1.7105712642289765e+02 0 0 0
3056 123 4 0.0000000000000000e+00 -4.1350815268938121e+01 4.4858715923397607e+00 -1.7808578049537928e+02 0 0 0
3057 123 3 0.0000000000000000e+00 -4.4621387237056432e+01 1.9222179920459161e+00 -1.6928168704695179e+02 0 0 0
402 17 2 0.0000000000000000e+00 -4.3663779422149446e+01 1.1531107046123807e+01 -1.7170343043459638e+02 0 0 0
405 17 2 0.0000000000000000e+00 -1.6680544403327950e+01 1.1148949284975068e+01 -1.7052694516025326e+02 0 0 0
1989 80 2 0.0000000000000000e+00 -6.5436859052959107e+01 -7.2652030645143427e+01 -1.5625344511075428e+02 0 0 0
1988 80 1 0.0000000000000000e+00 -7.1554818802462620e+01 -6.5277570551937814e+01 -1.5722244911197876e+02 0 0 0
4200 168 3 0.0000000000000000e+00 -6.2249617466886917e+01 -5.9383013042276090e+01 -1.5959759056012876e+02 0 0 0
1849 74 2 0.0000000000000000e+00 -3.3974650129500212e+01 -6.7948336369088040e+01 -1.5077713961849798e+02 0 0 0
1848 74 2 0.0000000000000000e+00 -3.5877130552983203e+01 -5.7816733251408230e+01 -1.5103644165459232e+02 0 0 0
3075 123 3 0.0000000000000000e+00 -1.0228475018014286e+02 -4.5767617556626938e+01 -1.5044575378924253e+02 0 0 0
1987 80 2 0.0000000000000000e+00 -7.2535132611231973e+01 -5.5623306972809566e+01 -1.6149188066584841e+02 0 0 0
4198 168 4 0.0000000000000000e+00 -6.8548977781188015e+01 -4.8127060679495422e+01 -1.5451723858717190e+02 0 0 0
4199 168 4 0.0000000000000000e+00 -6.2578499553705136e+01 -5.0200112804086324e+01 -1.6265263624471604e+02 0 0 0
4153 167 4 0.0000000000000000e+00 -5.3722586146149432e+01 -4.3207248715628779e+01 -1.5806585304766904e+02 0 0 0
4154 167 4 0.0000000000000000e+00 -4.6765618526287540e+01 -4.9831105430395887e+01 -1.6103810611792716e+02 0 0 0
4155 167 4 0.0000000000000000e+00 -4.8157622167262915e+01 -5.1496050238278123e+01 -1.5086962387904069e+02 0 0 0
1982 80 1 0.0000000000000000e+00 -1.0373283829627140e+02 -3.4661036480334694e+01 -1.5231737836293792e+02 0 0 0
1983 80 2 0.0000000000000000e+00 -9.5681075400746579e+01 -3.9448494450442475e+01 -1.5574961410663244e+02 0 0 0
1984 80 2 0.0000000000000000e+00 -8.6566631177918467e+01 -4.1268889443561541e+01 -1.5942798902215105e+02 0 0 0
4152 167 4 0.0000000000000000e+00 -5.9554048691716581e+01 -3.7987664488200004e+01 -1.5080964452713238e+02 0 0 0
274 11 2 0.0000000000000000e+00 -4.2093109273024318e+01 -3.7925311124776776e+01 -1.5759410826235225e+02 0 0 0
3063 123 3 0.0000000000000000e+00 -4.6076655155678509e+01 -2.6904342013640004e+01 -1.5896487609433024e+02 0 0 0
4460 179 4 0.0000000000000000e+00 -2.5622852543558164e+01 -1.9760151004379527e+01 -1.6278475269397302e+02 0 0 0
4459 179 4 0.0000000000000000e+00 -2.6251461623394874e+01 -1.8698740047934404e+01 -1.5296714917250409e+02 0 0 0
2247 90 2 0.0000000000000000e+00 -3.7349700706533753e+01 -1.1338593355205772e+01 -1.5733830427038262e+02 0 0 0
3408 137 4 0.0000000000000000e+00 -2.9979693545427629e+01 -1.4973795005631658e+00 -1.5441623524671445e+02 0 0 0
3407 137 3 0.0000000000000000e+00 -2.3450695722223713e+01 -7.8997766364967328e+00 -1.5038087169353048e+02 0 0 0
2064 83 2 0.0000000000000000e+00 -7.9437965439820786e+01 8.8962489209638225e+00 -1.6441410627250875e+02 0 0 0
2065 83 2 0.0000000000000000e+00 -7.0107265286181203e+01 7.6111426387295884e+00 -1.6331865767040875e+02 0 0 0
2066 83 2 0.0000000000000000e+00 -6.9088092607744528e+01 1.1818401455311445e+01 -1.5425750644343719e+02 0 0 0
3410 137 4 0.0000000000000000e+00 -4.3950886958569185e+01 7.4239197319033972e+00 -1.6003679051483422e+02 0 0 0
3409 137 4 0.0000000000000000e+00 -3.9091445095035084e+01 -6.3870162201429381e-01 -1.5772455494218519e+02 0 0 0
3210 129 4 0.0000000000000000e+00 -1.4658091161634061e+01 -3.9185048440756981e-01 -1.5702961779257706e+02 0 0 0
3209 129 4 0.0000000000000000e+00 -1.3084130165356807e+01 9.7331633237124109e+00 -1.5636388957157018e+02 0 0 0
1990 80 2 0.0000000000000000e+00 -6.0622154317746556e+01 -7.3382953866860760e+01 -1.4726988273507757e+02 0 0 0
1991 80 2 0.0000000000000000e+00 -6.5473710563509925e+01 -7.2918537092456233e+01 -1.3807424156815796e+02 0 0 0
4776 192 3 0.0000000000000000e+00 -4.4136315100339253e+01 -8.1198801021613903e+01 -1.4110730823795620e+02 0 0 0
1850 74 1 0.0000000000000000e+00 -3.6937382384516219e+01 -7.7256708261192600e+01 -1.4935891740260394e+02 0 0 0
4777 192 4 0.0000000000000000e+00 -3.4565390036472778e+01 -7.8863170741735559e+01 -1.3838618805388467e+02 0 0 0
4778 192 4 0.0000000000000000e+00 -2.5175269755875131e+01 -7.4888365653238665e+01 -1.3966373953722510e+02 0 0 0
4196 168 4 0.0000000000000000e+00 -6.9073555735319559e+01 -5.9348561282769253e+01 -1.4050300837009701e+02 0 0 0
4779 192 4 0.0000000000000000e+00 -2.0298168638307082e+01 -6.6951665606199938e+01 -1.4293061785789067e+02 0 0 0
4780 192 4 0.0000000000000000e+00 -2.3308217404272362e+01 -5.8262071271263842e+01 -1.4671391403478790e+02 0 0 0
3074 123 4 0.0000000000000000e+00 -1.0602428442537274e+02 -4.4010976429015926e+01 -1.4175899814655295e+02 0 0 0
4197 168 4 0.0000000000000000e+00 -7.3829882970680757e+01 -5.2810639371049568e+01 -1.4689555609502557e+02 0 0 0
255 11 2 0.0000000000000000e+00 -6.7094668804976848e+01 -4.6416041946145562e+01 -1.3641783127669356e+02 0 0 0
4156 167 4 0.0000000000000000e+00 -4.9243982950643407e+01 -5.2790029267174859e+01 -1.4090026593204755e+02 0 0 0
1846 74 2 0.0000000000000000e+00 -4.2957195889300088e+01 -4.5332005425874272e+01 -1.3994075953963178e+02 0 0 0
4781 192 4 0.0000000000000000e+00 -2.4480062105208791e+01 -4.8691510514680154e+01 -1.4878683555764513e+02 0 0 0
1847 74 2 0.0000000000000000e+00 -3.6397422340899475e+01 -5.2528154168471808e+01 -1.4281581651804350e+02 0 0 0
1981 80 2 0.0000000000000000e+00 -1.1267725999333064e+02 -3.0785078799213505e+01 -1.4876480482633619e+02 0 0 0
4151 167 3 0.0000000000000000e+00 -6.2627259558915341e+01 -3.1837953873844377e+01 -1.4362865230998344e+02 0 0 0
1845 74 2 0.0000000000000000e+00 -5.1946789868639080e+01 -3.9932002466774442e+01 -1.4165299007348989e+02 0 0 0
272 11 2 0.0000000000000000e+00 -4.4946502241631727e+01 -2.9863770321448332e+01 -1.3998924608753163e+02 0 0 0
273 11 2 0.0000000000000000e+00 -4.2874233674649254e+01 -3.5531898210509922e+01 -1.4798661225006262e+02 0 0 0
4782 192 3 0.0000000000000000e+00 -2.5484301975492752e+01 -3.8338465508668385e+01 -1.4919298386368180e+02 0 0 0
4783 192 4 0.0000000000000000e+00 -2.8806333517051659e+01 -3.0733864233251712e+01 -1.4322241112026410e+02 0 0 0
1457 59 1 0.0000000000000000e+00 -1.4239655366002504e+01 -3.7640418804283492e+01 -1.4668546159018643e+02 0 0 0
1456 59 2 0.0000000000000000e+00 -1.6486783173679676e+01 -3.8856578389420946e+01 -1.3653037317418034e+02 0 0 0
1980 80 2 0.0000000000000000e+00 -1.1484292548936074e+02 -2.0419352018493679e+01 -1.4838840173422378e+02 0 0 0
1979 80 2 0.0000000000000000e+00 -1.1986038463599837e+02 -1.5048292926205956e+01 -1.4117008805395574e+02 0 0 0
3065 123 4 0.0000000000000000e+00 -5.5006267190040589e+01 -2.3597247382152268e+01 -1.4388315660550953e+02 0 0 0
3064 123 4 0.0000000000000000e+00 -4.6624700222516275e+01 -2.3988677535111020e+01 -1.4907594143400644e+02 0 0 0
4457 179 3 0.0000000000000000e+00 -3.9032862973939018e+01 -1.8050984353834934e+01 -1.3914300256214989e+02 0 0 0
4458 179 4 0.0000000000000000e+00 -2.9857691574765653e+01 -1.6645740073283783e+01 -1.4343017894577579e+02 0 0 0
3405 137 4 0.0000000000000000e+00 -1.9431897173548627e+01 -2.2053863183970140e+01 -1.3926720450212346e+02 0 0 0
3066 123 4 0.0000000000000000e+00 -5.6402004611767104e+01 -1.4575363351530985e+01 -1.3940787944910403e+02 0 0 0
4455 179 4 0.0000000000000000e+00 -5.2288860175952252e+01 -4.8508564018911811e+00 -1.3869761850110689e+02 0 0 0
2248 90 2 0.0000000000000000e+00 -3.4854068743516791e+01 -8.6073791426715935e+00 -1.4817451792551086e+02 0 0 0
2249 90 2 0.0000000000000000e+00 -3.0899736881282827e+01 -8.0648078308766440e+00 -1.3882984514831898e+02 0 0 0
3406 137 4 0.0000000000000000e+00 -1.8754887871172294e+01 -1.2338313337543108e+01 -1.4259525069089412e+02 0 0 0
3211 129 4 0.0000000000000000e+00 -1.2723249723229239e+01 -3.1922015789471478e+00 -1.4739853954802186e+02 0 0 0
1451 59 1 0.0000000000000000e+00 -1.9592981278956895e+01 -2.3154376695110210e+00 -1.4138274023604606e+02 0 0 0
2701 109 3 0.0000000000000000e+00 -9.7719559112878798e+01 4.5882990330645326e+00 -1.4718846163771730e+02 0 0 0
4749 190 4 0.0000000000000000e+00 -1.0226102618615620e+02 9.7492116435304599e+00 -1.3832904102054658e+02 0 0 0
2702 109 4 0.0000000000000000e+00 -8.9822325486678352e+01 2.4448623760533561e+00 -1.4162036399354912e+02 0 0 0
2703 109 4 0.0000000000000000e+00 -7.9660854460157978e+01 5.5424937826832430e+00 -1.3877360436078160e+02 0 0 0
4453 179 4 0.0000000000000000e+00 -6.6702101949273882e+01 6.9641044114432678e+00 -1.4055065705455965e+02 0 0 0
4454 179 4 0.0000000000000000e+00 -6.0823101218521316e+01 -6.5676552527165299e-01 -1.4239484188715494e+02 0 0 0
1052 43 2 0.0000000000000000e+00 -4.2705843826694448e+01 8.5632172035927177e+00 -1.4979925450451273e+02 0 0 0
1053 43 2 0.0000000000000000e+00 -3.5034113143987703e+01 4.6010633333342632e+00 -1.4514271611553173e+02 0 0 0
4195 168 4 0.0000000000000000e+00 -7.1574943083358548e+01 -6.1445939649559918e+01 -1.3050319919327751e+02 0 0 0
1992 80 2 0.0000000000000000e+00 -6.5651642140597446e+01 -7.0157022893114473e+01 -1.2767651042944479e+02 0 0 0
4158 167 4 0.0000000000000000e+00 -5.3307714043186834e+01 -6.2606163046397320e+01 -1.2422909242687979e+02 0 0 0
254 11 2 0.0000000000000000e+00 -6.2165232366934070e+01 -4.7851119648206662e+01 -1.2773072456279468e+02 0 0 0
4157 167 3 0.0000000000000000e+00 -5.1902338986629431e+01 -5.5319069935773939e+01 -1.3162812748393509e+02 0 0 0
269 11 1 0.0000000000000000e+00 -4.9088090170032409e+01 -4.8855405302894638e+01 -1.2212022784273351e+02 0 0 0
1829 74 2 0.0000000000000000e+00 -2.9373699331810613e+01 -4.7956369011694910e+01 -1.3036813943477756e+02 0 0 0
1828 74 2 0.0000000000000000e+00 -1.9441701357710247e+01 -5.0253118584760550e+01 -1.2731821321445105e+02 0 0 0
3073 123 4 0.0000000000000000e+00 -1.0148238052608781e+02 -3.9209504962415920e+01 -1.3412309440028278e+02 0 0 0
3072 123 4 0.0000000000000000e+00 -9.3544562344939038e+01 -3.4458487490567656e+01 -1.3033738447754965e+02 0 0 0
3071 123 4 0.0000000000000000e+00 -8.4721948242820318e+01 -3.1729613463978616e+01 -1.2699206279344365e+02 0 0 0
256 11 2 0.0000000000000000e+00 -7.3158787416545621e+01 -4.1783127217591833e+01 -1.2977601621162012e+02 0 0 0
257 11 1 0.0000000000000000e+00 -6.7578761837220526e+01 -3.3396775185598301e+01 -1.2691201014685826e+02 0 0 0
1844 74 1 0.0000000000000000e+00 -5.7628637329370150e+01 -3.6027377616273455e+01 -1.3460413964803519e+02 0 0 0
270 11 2 0.0000000000000000e+00 -4.6043482813193087e+01 -3.9420655949698940e+01 -1.2367738750261107e+02 0 0 0
271 11 2 0.0000000000000000e+00 -4.7766513044947565e+01 -3.2443550220258352e+01 -1.3039999341178950e+02 0 0 0
1830 74 2 0.0000000000000000e+00 -3.3372594659361354e+01 -3.9725011031276850e+01 -1.2695714039180689e+02 0 0 0
1831 74 2 0.0000000000000000e+00 -3.6238182035573196e+01 -3.0958897246700278e+01 -1.3089188489068496e+02 0 0 0
4784 192 4 0.0000000000000000e+00 -2.4884799645114093e+01 -3.1088322468980401e+01 -1.3358318891683163e+02 0 0 0
1455 59 2 0.0000000000000000e+00 -1.5143402143724428e+01 -3.2982849908468140e+01 -1.2834519628768362e+02 0 0 0
1978 80 2 0.0000000000000000e+00 -1.1357366716433582e+02 -1.5058327813239595e+01 -1.3360449176926411e+02 0 0 0
3173 127 4 0.0000000000000000e+00 -9.4722456833864427e+01 -2.1976269071132958e+01 -1.2600931078286473e+02 0 0 0
3070 123 4 0.0000000000000000e+00 -8.3681331157036482e+01 -2.1723929292719010e+01 -1.2544697768083292e+02 0 0 0
4950 198 3 0.0000000000000000e+00 -6.9950231083101954e+01 -2.2552440501688547e+01 -1.2871634868119369e+02 0 0 0
1843 74 2 0.0000000000000000e+00 -5.4913864300970154e+01 -2.6108684675299262e+01 -1.3332819404859376e+02 0 0 0
1842 74 2 0.0000000000000000e+00 -4.9346162328455129e+01 -1.8445570607495274e+01 -1.3051081689771914e+02 0 0 0
1832 74 1 0.0000000000000000e+00 -3.9512819414364429e+01 -2.1872233645785290e+01 -1.2863953871460168e+02 0 0 0
4785 192 4 0.0000000000000000e+00 -2.2071098009350674e+01 -2.3090960086986179e+01 -1.2797406093210380e+02 0 0 0
1454 59 2 0.0000000000000000e+00 -1.1314422557070616e+01 -2.3876102628697442e+01 -1.2606632498859221e+02 0 0 0
1453 59 2 0.0000000000000000e+00 -1.3920031197656478e+01 -1.5420967398771673e+01 -1.3107202836955264e+02 0 0 0
1977 80 2 0.0000000000000000e+00 -1.0841891175072378e+02 -7.6608984081496327e+00 -1.2913992430637711e+02 0 0 0
1976 80 1 0.0000000000000000e+00 -1.0166239094880514e+02 -1.8102731487865731e+00 -1.2383543146416731e+02 0 0 0
3174 127 4 0.0000000000000000e+00 -9.1141431002943435e+01 -1.2175607837113459e+01 -1.2664216911259469e+02 0 0 0
3068 123 4 0.0000000000000000e+00 -7.2681849685122643e+01 -1.1211693586613938e+01 -1.2949437894809137e+02 0 0 0
581 24 2 0.0000000000000000e+00 -7.6331721378990423e+01 -2.2446309495252699e+00 -1.2655574953322514e+02 0 0 0
3067 123 4 0.0000000000000000e+00 -6.3766185972102058e+01 -1.3830790410973384e+01 -1.3221056245511363e+02 0 0 0
2171 87 2 0.0000000000000000e+00 -6.4433437841081130e+01 -5.7310911255570378e+00 -1.2320386172320565e+02 0 0 0
4456 179 4 0.0000000000000000e+00 -4.5152361633012994e+01 -1.1092970232243758e+01 -1.3502358967573969e+02 0 0 0
1841 74 2 0.0000000000000000e+00 -4.6551829507596892e+01 -1.4544059677962126e+01 -1.2190663643370553e+02 0 0 0
577 24 2 0.0000000000000000e+00 -4.3031973317990705e+01 -3.6039501250657011e+00 -1.2230177937049500e+02 0 0 0
1833 74 2 0.0000000000000000e+00 -3.5904566515670844e+01 -1.2111493895042328e+01 -1.2898743578691375e+02 0 0 0
3176 128 3 0.0000000000000000e+00 -2.4673297954956489e+01 -6.3191610118155586e+00 -1.2292426468110374e+02 0 0 0
2250 90 1 0.0000000000000000e+00 -3.8098011558894363e+01 -2.2639875351014114e+00 -1.3491543342952360e+02 0 0 0
1452 59 2 0.0000000000000000e+00 -2.0421671849208952e+01 -7.0353300058320798e+00 -1.3198055759647511e+02 0 0 0
4750 190 3 0.0000000000000000e+00 -1.0193946468097786e+02 -9.2999551049069332e-02 -1.3450096277568181e+02 0 0 0
2054 83 2 0.0000000000000000e+00 -9.4761741599393218e+01 1.0896375463839448e+01 -1.2472084701111183e+02 0 0 0
2055 83 2 0.0000000000000000e+00 -8.9671348341613466e+01 1.1018306797736702e+01 -1.3369306318174776e+02 0 0 0
2704 109 4 0.0000000000000000e+00 -7.2986072020657062e+01 8.8018692871212139e+00 -1.3206280145880760e+02 0 0 0
580 24 2 0.0000000000000000e+00 -6.7964282835409890e+01 -1.2149319465824490e-01 -1.3202949122616732e+02 0 0 0
2705 109 4 0.0000000000000000e+00 -7.5958856187679473e+01 1.1096506217684864e+01 -1.2206664214419001e+02 0 0 0
579 24 2 0.0000000000000000e+00 -5.8619200651423114e+01 3.1203896249858163e+00 -1.2780879710186004e+02 0 0 0
3627 146 4 0.0000000000000000e+00 -4.8230185074928286e+01 5.3025758187634526e+00 -1.3333808425703444e+02 0 0 0
3628 146 4 0.0000000000000000e+00 -4.9771561414620258e+01 6.9763420445359223e+00 -1.2316777724047577e+02 0 0 0
3626 146 3 0.0000000000000000e+00 -3.8897834170652551e+01 8.9088547488399783e+00 -1.3116133428987925e+02 0 0 0
576 24 1 0.0000000000000000e+00 -3.3922806014695446e+01 -2.1408289923671664e-01 -1.2256746020466326e+02 0 0 0
3177 128 4 0.0000000000000000e+00 -2.1832220751904547e+01 3.2555843971236120e+00 -1.2497414144775087e+02 0 0 0
3178 128 4 0.0000000000000000e+00 -2.1885147728919751e+01 1.2507128981597765e+01 -1.2849321401308674e+02 0 0 0
1993 80 2 0.0000000000000000e+00 -7.0464753574745970e+01 -7.2264019103371851e+01 -1.1901012440683311e+02 0 0 0
4160 167 4 0.0000000000000000e+00 -6.2374728965881687e+01 -7.0948278933308700e+01 -1.0921499660238726e+02 0 0 0
4193 168 4 0.0000000000000000e+00 -8.1146802682077521e+01 -5.7707345728053731e+01 -1.1695777920786288e+02 0 0 0
1994 80 1 0.0000000000000000e+00 -7.7045596252369933e+01 -6.8389526071550918e+01 -1.1163269636085965e+02 0 0 0
4194 168 3 0.0000000000000000e+00 -7.3174373929502920e+01 -6.2814427222552204e+01 -1.2069855326313065e+02 0 0 0
4159 167 4 0.0000000000000000e+00 -5.5499401892087249e+01 -6.7663875892538130e+01 -1.1547138327245467e+02 0 0 0
4192 168 4 0.0000000000000000e+00 -8.2046586659607541e+01 -5.3172349368114290e+01 -1.0831657172991304e+02 0 0 0
267 11 2 0.0000000000000000e+00 -6.7616678889844849e+01 -5.1277243341502349e+01 -1.1492103092900514e+02 0 0 0
268 11 2 0.0000000000000000e+00 -5.8222420228480424e+01 -5.1135272170867886e+01 -1.1879971033681012e+02 0 0 0
4945 198 4 0.0000000000000000e+00 -5.8929258690581669e+01 -4.8402830768269403e+01 -1.0878437950145022e+02 0 0 0
251 11 1 0.0000000000000000e+00 -4.9571337570265868e+01 -4.4426361671377506e+01 -1.1036320268204598e+02 0 0 0
1827 74 2 0.0000000000000000e+00 -1.5185506668394007e+01 -4.4547473179872298e+01 -1.1990233087643284e+02 0 0 0
3172 127 4 0.0000000000000000e+00 -9.5113238191566168e+01 -3.0528135830370498e+01 -1.2059069502555933e+02 0 0 0
3171 127 4 0.0000000000000000e+00 -9.1803140667363010e+01 -3.7872134882904469e+01 -1.1396049704272505e+02 0 0 0
4948 198 4 0.0000000000000000e+00 -7.3262224173605645e+01 -3.1755188333388304e+01 -1.1261105045866015e+02 0 0 0
258 11 2 0.0000000000000000e+00 -6.2426480056688924e+01 -2.9202945966358048e+01 -1.1933999836409612e+02 0 0 0
253 11 2 0.0000000000000000e+00 -6.0241745912722081e+01 -3.9697187908343466e+01 -1.2183780955067168e+02 0 0 0
252 11 2 0.0000000000000000e+00 -5.5843824444723573e+01 -3.7520141353020151e+01 -1.1304949272972573e+02 0 0 0
260 11 2 0.0000000000000000e+00 -4.5190128811985780e+01 -3.2126097181663191e+01 -1.1344386932382763e+02 0 0 0
3271 131 4 0.0000000000000000e+00 -2.0870445361350761e+01 -3.3441328761266647e+01 -1.1400018298609160e+02 0 0 0
2386 96 2 0.0000000000000000e+00 -8.2018331440110728e+01 -2.0266094684345699e+01 -1.0871069361299602e+02 0 0 0
2387 96 2 0.0000000000000000e+00 -8.8040614624176300e+01 -1.7456587509928404e+01 -1.1646460464960846e+02 0 0 0
4949 198 4 0.0000000000000000e+00 -7.4999350660713120e+01 -2.5411555259469051e+01 -1.2076803953221953e+02 0 0 0
2169 87 1 0.0000000000000000e+00 -6.8362431809798039e+01 -2.1349168752341249e+01 -1.1284939737571531e+02 0 0 0
4876 196 3 0.0000000000000000e+00 -5.8806949103327796e+01 -2.3374493242982616e+01 -1.1106082288438878e+02 0 0 0
4877 196 4 0.0000000000000000e+00 -5.3876127749674730e+01 -1.4994347421388948e+01 -1.1278549673535898e+02 0 0 0
259 11 2 0.0000000000000000e+00 -5.1967012437704796e+01 -2.7940195212546843e+01 -1.1938894176997066e+02 0 0 0
1840 74 2 0.0000000000000000e+00 -3.9829546782271258e+01 -1.8041434077644094e+01 -1.1551770674768666e+02 0 0 0
3270 131 4 0.0000000000000000e+00 -1.4773615237557157e+01 -2.6091839837148623e+01 -1.1668031849914740e+02 0 0 0
4786 192 4 0.0000000000000000e+00 -2.1575515585039952e+01 -1.6093513429206514e+01 -1.2056727729072004e+02 0 0 0
2156 87 2 0.0000000000000000e+00 -2.0759670485201621e+01 -2.3230914863238240e+01 -1.0799456028740539e+02 0 0 0
2711 109 4 0.0000000000000000e+00 -1.1131190676579887e+02 -7.2272715433812245e+00 -1.0778384062617359e+02 0 0 0
2710 109 4 0.0000000000000000e+00 -1.0946938264816768e+02 -3.3047112884599734e+00 -1.1634384171543192e+02 0 0 0
2388 96 1 0.0000000000000000e+00 -9.6171072901160812e+01 -1.1423707516239814e+01 -1.1543680306701816e+02 0 0 0
2389 96 2 0.0000000000000000e+00 -1.0212311482363008e+02 -6.8416329274470655e+00 -1.0837096939870827e+02 0 0 0
3175 127 3 0.0000000000000000e+00 -9.0610050162650637e+01 -3.4507613199419027e+00 -1.2137895877436765e+02 0 0 0
583 24 2 0.0000000000000000e+00 -8.3969161731772402e+01 -4.6748285251292296e+00 -1.0786264123703550e+02 0 0 0
3069 123 3 0.0000000000000000e+00 -7.8910104559286168e+01 -1.4245728680094006e+01 -1.2158070299665411e+02 0 0 0
582 24 1 0.0000000000000000e+00 -7.8443851115912480e+01 -3.7703612716868395e+00 -1.1657629817928020e+02 0 0 0
2168 87 2 0.0000000000000000e+00 -7.1973775735632699e+01 -1.1955224088466016e+01 -1.1163123537877453e+02 0 0 0
578 24 2 0.0000000000000000e+00 -5.2531207994298128e+01 -2.1729891722108996e+00 -1.2138528446918335e+02 0 0 0
2170 87 2 0.0000000000000000e+00 -6.4386786008236299e+01 -1.4519903252312512e+01 -1.1822509410248303e+02 0 0 0
2167 87 2 0.0000000000000000e+00 -6.2864590798019087e+01 -7.6011729826458927e+00 -1.0878042332382007e+02 0 0 0
4878 196 4 0.0000000000000000e+00 -4.6176639948342753e+01 -1.0252796874982707e+01 -1.0945005599241458e+02 0 0 0
1834 74 2 0.0000000000000000e+00 -3.4208220962032271e+01 -1.0409991228670343e+01 -1.1861924922737573e+02 0 0 0
1835 74 2 0.0000000000000000e+00 -3.0717667487040710e+01 -3.4684581490911595e+00 -1.1186084612490805e+02 0 0 0
1839 74 2 0.0000000000000000e+00 -3.3531919029687067e+01 -1.3794363102648639e+01 -1.0859785249504249e+02 0 0 0
4787 192 4 0.0000000000000000e+00 -1.4844646483969523e+01 -8.7371756840375099e+00 -1.1783964258945123e+02 0 0 0
2709 109 4 0.0000000000000000e+00 -1.0174906550489882e+02 3.1265105418656480e+00 -1.1461709498333133e+02 0 0 0
2708 109 4 0.0000000000000000e+00 -9.4672776254348719e+01 4.5995559040084073e+00 -1.0765712558761595e+02 0 0 0
2706 109 4 0.0000000000000000e+00 -7.9968723713361015e+01 1.0573397560878437e+01 -1.1272829504549310e+02 0 0 0
2173 87 2 0.0000000000000000e+00 -6.7133636901578498e+01 7.1520532736546434e+00 -1.0860800065990016e+02 0 0 0
2166 87 2 0.0000000000000000e+00 -5.5972421731763745e+01 -7.4898878005184033e-01 -1.1042754853000747e+02 0 0 0
2172 87 2 0.0000000000000000e+00 -6.5751411893100254e+01 3.2532400605830052e+00 -1.1810657489340367e+02 0 0 0
3629 146 4 0.0000000000000000e+00 -5.2120806645550410e+01 1.1986994907079010e+01 -1.1479743711820009e+02 0 0 0
2165 87 2 0.0000000000000000e+00 -4.6913372477206202e+01 3.3702333780409965e+00 -1.1336731782561756e+02 0 0 0
2164 87 2 0.0000000000000000e+00 -4.0129340563245982e+01 1.0810839022549235e+01 -1.1267848797899573e+02 0 0 0
662 27 2 0.0000000000000000e+00 -2.9106624717133723e+01 1.1803182015455070e+01 -1.1415387350256270e+02 0 0 0
663 27 1 0.0000000000000000e+00 -1.9252523444938682e+01 1.0022904313486682e+01 -1.1586385377189299e+02 0 0 0
4788 192 3 0.0000000000000000e+00 -1.3599338270012909e+01 1.3170762695114417e+00 -1.1934736051764541e+02 0 0 0
4161 167 4 0.0000000000000000e+00 -6.7591281094124938e+01 -7.5640815633852029e+01 -1.0126514233275874e+02 0 0 0
1996 80 2 0.0000000000000000e+00 -8.3914480409363449e+01 -6.0853598813668761e+01 -9.4488486233704549e+01 0 0 0
1995 80 2 0.0000000000000000e+00 -8.2195683718116172e+01 -6.5265034094650488e+01 -1.0390590051026386e+02 0 0 0
4943 198 4 0.0000000000000000e+00 -4.6889221414635919e+01 -6.4053685611447634e+01 -1.0461582958185701e+02 0 0 0
4942 198 4 0.0000000000000000e+00 -3.8503448474310453e+01 -6.6654031467237687e+01 -9.9638892184540694e+01 0 0 0
4941 198 4 0.0000000000000000e+00 -3.0736645336027618e+01 -6.9647576149075192e+01 -9.4909962993628426e+01 0 0 0
2151 87 1 0.0000000000000000e+00 -1.6742105678448027e+01 -6.2563090266871278e+01 -9.4109040744452301e+01 0 0 0
4191 168 4 0.0000000000000000e+00 -8.2801042037364567e+01 -4.8938486964461028e+01 -9.8593252681186428e+01 0 0 0
266 11 2 0.0000000000000000e+00 -6.9734833183411794e+01 -5.1068555826164001e+01 -1.0554783126662299e+02 0 0 0
265 11 2 0.0000000000000000e+00 -7.0420229630656465e+01 -4.5847300209449898e+01 -9.7472478126955068e+01 0 0 0
264 11 2 0.0000000000000000e+00 -6.1331668356553969e+01 -4.7706644497481768e+01 -9.3798726548953681e+01 0 0 0
263 11 1 0.0000000000000000e+00 -5.1586028962018190e+01 -4.6600527959803081e+01 -9.5714828948063499e+01 0 0 0
4944 198 3 0.0000000000000000e+00 -5.1069886743841650e+01 -5.5088909901268124e+01 -1.0697311619008779e+02 0 0 0
2153 87 2 0.0000000000000000e+00 -2.5877326688693781e+01 -5.0663566214913487e+01 -1.0677911685800086e+02 0 0 0
1163 47 1 0.0000000000000000e+00 -3.1353726559408429e+01 -4.4044373520594128e+01 -9.6687236281239734e+01 0 0 0
2152 87 2 0.0000000000000000e+00 -2.0020357282861976e+01 -5.6071429857069930e+01 -1.0068929151755260e+02 0 0 0
3273 131 4 0.0000000000000000e+00 -1.8656959068988176e+01 -4.4690583394978965e+01 -9.9971568822238666e+01 0 0 0
3170 127 4 0.0000000000000000e+00 -9.4843488701065823e+01 -3.9421706875021194e+01 -1.0370970845679740e+02 0 0 0
3169 127 3 0.0000000000000000e+00 -1.0244975607131607e+02 -3.5384751035585914e+01 -9.8100072319291655e+01 0 0 0
587 24 2 0.0000000000000000e+00 -9.2755354234734156e+01 -3.5491325808519299e+01 -9.4201814377335765e+01 0 0 0
4947 198 4 0.0000000000000000e+00 -6.8036834819698811e+01 -3.2085966025013697e+01 -1.0351185640904031e+02 0 0 0
2384 96 2 0.0000000000000000e+00 -7.8440893523347356e+01 -2.9954788460648754e+01 -9.3384874794749692e+01 0 0 0
4946 198 4 0.0000000000000000e+00 -6.3024570678211973e+01 -4.0975283081022447e+01 -1.0286334163901552e+02 0 0 0
1668 67 2 0.0000000000000000e+00 -6.0062628212792490e+01 -3.3453962860432014e+01 -9.4940202807838531e+01 0 0 0
262 11 2 0.0000000000000000e+00 -4.2966193605536574e+01 -4.1814635398669679e+01 -9.5394084504266914e+01 0 0 0
261 11 2 0.0000000000000000e+00 -4.3028223041133145e+01 -3.5507159519402670e+01 -1.0350969013388311e+02 0 0 0
2154 87 2 0.0000000000000000e+00 -2.8781360243201338e+01 -4.1274897918913823e+01 -1.0568237949272616e+02 0 0 0
1164 47 2 0.0000000000000000e+00 -3.2795953979774673e+01 -3.3827057729567045e+01 -9.8576581017611957e+01 0 0 0
2155 87 2 0.0000000000000000e+00 -2.6423221942060543e+01 -3.0852552863117520e+01 -1.0618306505997516e+02 0 0 0
3272 131 4 0.0000000000000000e+00 -1.6915606450485917e+01 -3.6672546665959501e+01 -1.0571275488037841e+02 0 0 0
585 24 2 0.0000000000000000e+00 -9.1622063150895798e+01 -1.8038870969038296e+01 -1.0111050718078177e+02 0 0 0
586 24 2 0.0000000000000000e+00 -9.2636158354923424e+01 -2.7737549306770646e+01 -1.0013327203112142e+02 0 0 0
2385 96 2 0.0000000000000000e+00 -8.1806110323747873e+01 -2.8153621876804809e+01 -1.0222077646808478e+02 0 0 0
3156 127 4 0.0000000000000000e+00 -7.9396388922494012e+01 -1.7166523823035224e+01 -9.8988889989702486e+01 0 0 0
3157 127 3 0.0000000000000000e+00 -7.2879454208492106e+01 -2.4014007431017077e+01 -1.0306260578135348e+02 0 0 0
1669 67 1 0.0000000000000000e+00 -5.5924419612875596e+01 -2.7056864245749200e+01 -1.0158228098371494e+02 0 0 0
3158 127 4 0.0000000000000000e+00 -6.3867826799975674e+01 -2.0929454622618763e+01 -1.0101033001058138e+02 0 0 0
3159 127 4 0.0000000000000000e+00 -5.5628997908485211e+01 -1.5583524326553411e+01 -1.0086448396491805e+02 0 0 0
1166 47 2 0.0000000000000000e+00 -4.6764239429181089e+01 -2.4379985350607679e+01 -1.0699074887862237e+02 0 0 0
1670 67 2 0.0000000000000000e+00 -4.8216988772450499e+01 -2.8419036592778401e+01 -9.5648864820731006e+01 0 0 0
1167 47 2 0.0000000000000000e+00 -4.4579995061236154e+01 -1.6604650886673422e+01 -1.0071393643619535e+02 0 0 0
1165 47 2 0.0000000000000000e+00 -3.7295578782811170e+01 -2.7482348841583551e+01 -1.0437371279820988e+02 0 0 0
3300 132 3 0.0000000000000000e+00 -2.5854828845433392e+01 -1.7839815465560690e+01 -1.0025411532061700e+02 0 0 0