LAMMPS (5 Jun 2019)
Reading restart file ...
  restart file = 5 Jun 2019, LAMMPS = 5 Jun 2019
WARNING: Restart file used different # of processors (../read_restart.cpp:740)
  restoring atom style full from restart
  orthogonal box = (-250 -250 -250) to (250 250 250)
  1 by 2 by 5 MPI processor grid
  restoring pair style lj/cut from restart
  restoring bond style harmonic from restart
  restoring angle style cosine from restart
  5000 atoms
  5295 bonds
  4600 angles
Finding 1-2 1-3 1-4 neighbors ...
  special bond factors lj:   1          1          1         
  special bond factors coul: 0          0          0         
  3 = max # of 1-2 neighbors
  4 = max # of 1-3 neighbors
  8 = max # of 1-4 neighbors
  16 = max # of special neighbors
  special bonds CPU = 0.0139195 secs
  read_restart CPU = 0.174519 secs
1000 atoms in group rxnSites
Neighbor list info ...
  update every 1 steps, delay 1 steps, check yes
  max neighbors/atom: 2000, page size: 100000
  master list distance cutoff = 26.9
  ghost atom cutoff = 26.9
  binsize = 13.45, bins = 38 38 38
  2 neighbor lists, perpetual/occasional/extra = 1 1 0
  (1) pair lj/cut, perpetual
      attributes: half, newton on
      pair build: half/bin/newton
      stencil: half/bin/3d/newton
      bin: standard
  (2) fix bond/create/random, occasional, copy from (1)
      attributes: half, newton on
      pair build: copy
      stencil: none
      bin: none
Setting up Verlet run ...
  Unit style    : real
  Current step  : 300000000
  Time step     : 25
WARNING: Inconsistent image flags (../domain.cpp:784)
Per MPI rank memory allocation (min/avg/max) = 10.27 | 10.55 | 11.2 Mbytes
Step E_pair PotEng KinEng E_bond E_angle Temp Bonds 
300000000   -3871.1467    520.89237    4604.6364    1601.0349    2791.0041    309.01382     5295 
301000000   -3850.8006    596.02862    4623.6328    1605.6287    2841.2005    310.28865     5295 
302000000   -3906.8078       486.15    4641.7287    1555.2393    2837.7185    311.50306     5295 
303000000   -3919.0393    583.44034    4587.3118    1602.8793    2899.6003    307.85118     5295 
304000000   -3945.5905    536.04473    4565.6031     1583.589    2898.0462    306.39433     5296 
305000000    -3879.913    571.12957    4557.2246    1551.6694    2899.3732    305.83205     5296 
306000000   -3798.4929    671.73573    4698.4064    1551.0299    2919.1987    315.30666     5296 
307000000   -3972.2049    418.17176    4569.5538    1573.5898    2816.7868    306.65945     5295 
308000000   -3813.0135    597.67121    4483.3703     1561.212    2849.4727    300.87574     5294 
309000000   -3812.4044    600.79887    4588.5112    1583.5714    2829.6319    307.93167     5294 
310000000   -3904.5461    561.38687    4631.7803    1601.6164    2864.3165    310.83543     5294 
311000000   -3835.5274    538.92118    4546.4536      1546.88    2827.5686    305.10922     5294 
312000000   -3854.7228    598.39387    4631.1208    1612.1472    2840.9695    310.79117     5294 
313000000   -3936.6008     479.2448    4621.7854    1559.4233    2856.4223    310.16468     5294 
314000000   -3896.2396    566.91388    4655.0206    1590.2199    2872.9336    312.39507     5294 
315000000   -3857.5976    557.94173    4641.4513    1521.5744    2893.9649    311.48444     5293 
316000000   -3876.8371    649.13824    4631.4681    1653.5414    2872.4339    310.81447     5292 
317000000   -3909.1475    515.74758    4620.7889    1568.4003    2856.4948     310.0978     5293 
318000000   -3840.5803    549.26977     4609.245    1545.1175    2844.7326     309.3231     5294 
319000000   -3908.3037    570.32272    4605.7377     1609.877    2868.7494    309.08773     5293 
320000000   -3871.9363    576.26951    4608.9866    1585.5382    2862.6676    309.30576     5294 
321000000   -3920.5535    458.95271     4619.642    1532.0876    2847.4185    310.02083     5294 
322000000   -3957.5739      468.232    4548.4096    1537.3058    2888.5001    305.24048     5295 
323000000   -3820.7201    669.69014    4583.1464     1609.923    2880.4872    307.57164     5296 
324000000   -3956.0237    524.47305    4634.0203    1582.3848    2898.1119    310.98575     5296 
325000000   -3786.9159    633.47481    4625.9927    1568.0588     2852.332    310.44703     5297 
326000000   -3837.1324     605.9888    4590.9804    1568.8532     2874.268    308.09737     5297 
327000000   -3878.4745    583.73345    4627.7071    1569.7029     2892.505    310.56208     5297 
328000000   -3908.8132    581.74496    4677.2099    1615.1955    2875.3627    313.88418     5298 
329000000   -3963.0351    555.74536    4576.9281    1612.5098    2906.2707    307.15434     5298 
330000000   -3901.6198    508.35556    4629.2568    1534.4288    2875.5465    310.66608     5297 
331000000   -3855.8642    639.14325      4648.91    1565.0643    2929.9431    311.98499     5297 
332000000    -3897.835    509.92514    4606.7943    1551.7851     2855.975    309.15864     5297 
333000000    -3896.586    589.14553    4538.7201     1617.117    2868.6146    304.59023     5297 
334000000   -3868.2231    595.31822    4510.8174     1551.517    2912.0243    302.71769     5296 
335000000   -3892.0956    571.98336    4695.4128    1602.0603    2862.0187    315.10576     5293 
336000000   -3743.6458    648.69965     4616.354    1558.0591    2834.2863    309.80018     5293 
337000000   -3827.4933    635.01649    4640.1906    1559.9503    2902.5594    311.39984     5292 
338000000   -3899.2797    581.66289    4625.6809    1603.8617    2877.0809     310.4261     5292 
339000000   -3825.4935    555.32297    4582.3672    1519.9345    2860.8819    307.51935     5292 
340000000   -3821.2374     561.3096    4583.4602     1517.985     2864.562     307.5927     5291 
341000000   -3873.8655    672.95464    4672.7773    1628.4289    2918.3912     313.5867     5290 
342000000   -3852.9242    576.06567     4606.401    1574.9918    2853.9981    309.13224     5292 
343000000   -3794.8041    575.10275    4644.3441    1508.4176    2861.4892    311.67857     5292 
344000000   -3869.4695      486.418    4656.7522    1531.6315     2824.256    312.51127     5293 
345000000   -3811.0185    633.93767    4631.6742    1554.5302    2890.4259    310.82831     5294 
346000000   -3862.9449    544.98153    4672.8099    1535.6852    2872.2412     313.5889     5295 
347000000   -3890.6712     600.2033    4657.9336    1557.4184    2933.4561    312.59056     5293 
348000000   -3843.4893    628.06386    4615.4772    1583.9406    2887.6126    309.74134     5294 
349000000   -3899.8505     489.5476    4544.8682    1558.2797    2831.1184    305.00282     5295 
350000000    -3921.023    564.86583    4591.7566    1580.4954    2905.3934    308.14946     5294 
351000000   -3808.0448    554.84268    4559.3036    1549.8316    2813.0558    305.97157     5295 
352000000   -3957.8347    501.72834    4586.6293    1569.0802    2890.4829    307.80538     5295 
353000000   -3988.0151    469.73306    4598.6456     1582.723    2875.0251    308.61178     5295 
354000000   -3854.4958    623.88903     4652.745    1641.0256    2837.3593    312.24235     5295 
355000000   -3871.8435    576.79943    4667.4338     1559.803    2888.8399    313.22811     5293 
356000000    -3819.696     583.4795    4649.9018    1548.4825     2854.693    312.05155     5294 
357000000   -3848.3541    607.61838    4604.9581    1606.3105     2849.662    309.03541     5294 
358000000   -3890.6963    484.93816    4660.5649    1531.4511    2844.1834    312.76714     5293 
359000000    -3870.926    627.40922    4669.1735    1608.6361    2889.6991    313.34486     5293 
360000000   -3926.0546    522.31654     4527.972    1553.6919    2894.6792    303.86893     5296 
361000000   -3945.8695    391.20584    4644.8945     1514.192    2822.8833    311.71551     5296 
362000000   -3893.6119    513.46369    4633.2906      1533.28    2873.7956    310.93678     5296 
363000000   -3844.7367    538.80095     4602.622    1490.6438    2892.8938    308.87864     5296 
364000000   -3782.9717    578.50757    4606.6439    1516.3304    2845.1488    309.14854     5296 
365000000   -3840.3292    601.07877    4570.8134    1528.5591    2912.8488    306.74399     5296 
366000000   -3817.0565    628.03418    4615.1586      1568.22    2876.8706    309.71996     5296 
367000000   -3830.9855    576.22906    4569.7836    1586.4537    2820.7609    306.67487     5295 
368000000   -3872.3991     560.1826    4633.5093    1587.3875    2845.1943    310.95146     5295 
369000000   -3801.8064    630.10452     4665.927    1579.5968    2852.3141    313.12699     5295 
370000000   -3838.4616    623.02066    4678.4024     1577.956    2883.5263    313.96421     5294 
371000000   -3739.2682    632.28303    4601.2141    1522.7425    2848.8087    308.78415     5295 
372000000   -3881.1216    516.88769    4685.6852    1501.3506    2896.6587    314.45295     5294 
373000000   -3960.6155    444.33837    4628.2211    1562.7658    2842.1881    310.59657     5295 
374000000   -3883.8113    571.48149    4574.5549    1571.0366    2884.2562    306.99508     5295 
375000000   -3844.5382    604.71549    4634.0108     1577.031    2872.2226    310.98512     5294 
376000000   -3873.7592    508.31293    4663.9758    1542.2219    2839.8502    312.99605     5294 
377000000   -3773.5221    624.39464    4624.1075    1583.8708    2814.0459    310.32051     5295 
378000000   -3954.0609    451.04758    4660.9222    1540.3546    2864.7539    312.79112     5293 
379000000   -3895.3935    620.01121    4614.0582    1601.1401    2914.2646    309.64611     5293 
380000000   -3835.1831    547.24567     4639.241    1530.4681    2851.9606    311.33611     5293 
381000000   -3807.9684    593.86617    4642.3404    1520.7792    2881.0554    311.54411     5294 
382000000   -3851.5982    527.30672    4652.0363    1582.8974    2796.0076     312.1948     5295 
383000000   -3806.1074    577.52983    4691.9197    1577.4501     2806.187    314.87134     5296 
384000000   -3817.4173    680.54735    4659.6538    1612.2092    2885.7555      312.706     5296 
385000000   -3872.4773     516.2451    4555.6834    1528.3452    2860.3772    305.72862     5296 
386000000   -3754.0545     690.9752    4587.2681    1586.6522    2858.3776    307.84825     5296 
387000000   -3832.9575    547.07949    4585.1377      1539.64     2840.397    307.70528     5296 
388000000   -3866.2075    500.70515    4603.1217    1513.0611    2853.8516    308.91217     5296 
389000000    -3841.832    483.58707    4587.7441    1529.0726    2796.3464    307.88019     5296 
390000000   -3924.1894    505.49259    4601.2527    1575.7992    2853.8827    308.78674     5296 
391000000   -3892.7859    541.95662    4656.9387    1535.8539    2898.8886    312.52379     5296 
392000000   -3857.4085     581.1357    4587.8023    1582.9878    2855.5564     307.8841     5296 
393000000   -3887.9402    581.06131    4620.9972    1568.5618    2900.4398    310.11178     5296 
394000000   -3859.3926    561.37181    4651.1003    1578.8789    2841.8856    312.13198     5295 
395000000   -3885.2254    576.41908    4627.8222    1594.3662    2867.2783    310.56981     5294 
396000000   -3841.5616    527.58891    4605.9423    1550.1584    2818.9921    309.10146     5296 
397000000   -3780.9848    569.24019    4591.3166     1531.688     2818.537    308.11994     5295 
398000000   -3934.0052    552.63349    4710.5598    1605.2513    2881.3874    316.12226     5296 
399000000   -3844.5255    613.41647    4626.0471    1606.6369     2851.305    310.45067     5295 
400000000   -3888.9465     479.7124    4668.9357    1520.1866    2848.4723     313.3289     5295 
Loop time of 27950.2 on 10 procs for 100000000 steps with 5000 atoms

Performance: 7728.029 ns/day, 0.003 hours/ns, 3577.791 timesteps/s
99.6% CPU use with 10 MPI tasks x no OpenMP threads

MPI task timing breakdown:
Section |  min time  |  avg time  |  max time  |%varavg| %total
---------------------------------------------------------------
Pair    | 9346.2     | 10519      | 11700      | 754.9 | 37.64
Bond    | 1587.4     | 1605.1     | 1631.7     |  36.4 |  5.74
Neigh   | 3561.1     | 3601       | 3640.6     |  40.2 | 12.88
Comm    | 5897.7     | 7275.5     | 8797.4     |1043.4 | 26.03
Output  | 0.71017    | 0.71032    | 0.71043    |   0.0 |  0.00
Modify  | 3771.7     | 3808.1     | 3849.8     |  37.4 | 13.62
Other   |            | 1140       |            |       |  4.08

Nlocal:    500 ave 528 max 468 min
Histogram: 1 1 1 1 0 1 0 2 2 1
Nghost:    731.6 ave 925 max 571 min
Histogram: 1 0 3 1 2 1 0 0 0 2
Neighs:    10189.1 ave 11378 max 8474 min
Histogram: 1 0 2 1 0 1 0 1 1 3

Total # of neighbors = 101891
Ave neighs/atom = 20.3782
Ave special neighs/atom = 7.4912
Neighbor list builds = 5030595
Dangerous builds = 0
System init for write_restart ...
Total wall time: 7:45:51
