LAMMPS (5 Jun 2019)
Reading restart file ...
  restart file = 5 Jun 2019, LAMMPS = 5 Jun 2019
WARNING: Restart file used different # of processors (../read_restart.cpp:740)
  restoring atom style full from restart
  orthogonal box = (-250 -250 -250) to (250 250 250)
  1 by 2 by 5 MPI processor grid
  restoring pair style lj/cut from restart
  restoring bond style harmonic from restart
  restoring angle style cosine from restart
  5000 atoms
  5295 bonds
  4600 angles
Finding 1-2 1-3 1-4 neighbors ...
  special bond factors lj:   1          1          1         
  special bond factors coul: 0          0          0         
  3 = max # of 1-2 neighbors
  4 = max # of 1-3 neighbors
  8 = max # of 1-4 neighbors
  16 = max # of special neighbors
  special bonds CPU = 0.0099221 secs
  read_restart CPU = 0.107061 secs
1000 atoms in group rxnSites
Neighbor list info ...
  update every 1 steps, delay 1 steps, check yes
  max neighbors/atom: 2000, page size: 100000
  master list distance cutoff = 26.9
  ghost atom cutoff = 26.9
  binsize = 13.45, bins = 38 38 38
  2 neighbor lists, perpetual/occasional/extra = 1 1 0
  (1) pair lj/cut, perpetual
      attributes: half, newton on
      pair build: half/bin/newton
      stencil: half/bin/3d/newton
      bin: standard
  (2) fix bond/create/random, occasional, copy from (1)
      attributes: half, newton on
      pair build: copy
      stencil: none
      bin: none
Setting up Verlet run ...
  Unit style    : real
  Current step  : 300000000
  Time step     : 25
WARNING: Inconsistent image flags (../domain.cpp:784)
Per MPI rank memory allocation (min/avg/max) = 10.27 | 10.55 | 11.2 Mbytes
Step E_pair PotEng KinEng E_bond E_angle Temp Bonds 
300000000   -3871.1467    520.89237    4604.6364    1601.0349    2791.0041    309.01382     5295 
301000000   -3790.1735    580.03779    4551.2839    1529.2726    2840.9387    305.43338     5294 
302000000   -3927.2429    541.47957    4639.3643    1594.0973    2874.6252    311.34439     5295 
303000000   -3825.0369    686.73483    4597.4323    1630.0187     2881.753    308.53036     5294 
304000000   -3884.1598    636.84796    4695.6778     1577.798    2943.2098    315.12354     5294 
305000000    -3893.875    503.37072    4585.2128    1503.6951    2893.5507    307.71031     5294 
306000000   -3974.4242    365.27684    4643.6163    1535.4055    2804.2955    311.62974     5295 
307000000   -3854.9917    586.17704    4710.1769    1575.8082    2865.3605    316.09657     5295 
308000000   -3819.0088    663.88565    4641.6441    1555.0447    2927.8497    311.49738     5294 
309000000   -3875.9375    526.38115    4611.4196    1532.3706     2869.948    309.46903     5295 
310000000   -3934.9105    473.81003    4666.9647     1575.734    2832.9865    313.19662     5296 
311000000   -3877.6733    554.06261    4641.8374    1573.2355    2858.5004    311.51035     5296 
312000000   -3901.9736    519.04829    4633.1416    1572.6944    2848.3275    310.92678     5297 
313000000    -3842.114    565.91069     4638.899    1594.4866    2813.5381    311.31316     5297 
314000000   -3892.9534    582.26363    4556.4441    1591.4449    2883.7722    305.77967     5297 
315000000   -3948.8221     439.1384    4655.8956    1578.9514     2809.009    312.45379     5296 
316000000   -3934.9736    453.45662    4689.1645    1518.0818    2870.3485    314.68644     5296 
317000000   -3915.7807    474.96581    4676.1466     1574.496    2816.2505    313.81282     5296 
318000000   -3905.5615     464.9036    4636.4547    1567.8979    2802.5671    311.14912     5296 
319000000   -3845.2516    539.73724    4659.1185    1565.5283    2819.4606    312.67008     5296 
320000000   -3929.2705    500.30756    4632.3728    1577.3977    2852.1803    310.87519     5296 
321000000   -3916.9989    506.06333    4659.5595     1571.894    2851.1682    312.69967     5297 
322000000   -3881.9106    610.31987    4620.6092    1577.5796     2914.651    310.08574     5297 
323000000   -3864.0586    580.36971    4620.9034    1573.5252    2870.9031    310.10549     5297 
324000000   -3850.1892    666.23616    4648.2073    1639.5176    2876.9077    311.93783     5297 
325000000   -3895.2465    564.35158    4667.2275    1543.7709    2915.8272    313.21426     5295 
326000000   -3839.4425    583.03242    4657.6874      1532.38    2890.0948    312.57404     5296 
327000000   -3834.0309    543.26124    4617.3312    1526.4632    2850.8289    309.86576     5296 
328000000   -3879.4101    563.88454     4603.572    1609.5106     2833.784    308.94239     5295 
329000000   -3910.8768    472.83799    4604.2372    1547.7238    2835.9911    308.98703     5292 
330000000   -3922.8092    503.03858    4611.3737    1558.8316    2867.0162    309.46596     5292 
331000000   -3826.1541    483.57711    4711.3839    1521.3091    2788.4222    316.17757     5293 
332000000   -3908.8519    615.75749     4600.201     1626.046    2898.5634    308.71616     5293 
333000000   -3792.8561    519.37086    4640.3879    1500.1468    2812.0802    311.41308     5293 
334000000    -3767.517    715.30803    4605.5804    1641.8101     2841.015    309.07717     5292 
335000000   -3835.0281    615.91319    4620.9195    1580.0848    2870.8565    310.10657     5293 
336000000    -3830.852    619.71725    4661.3289    1572.4057    2878.1635    312.81841     5294 
337000000   -3894.3181    544.66981    4666.5194    1592.6922    2846.2957    313.16674     5293 
338000000   -3845.4259      533.468    4666.2037    1511.3263    2867.5676    313.14556     5294 
339000000   -3863.6955    596.99753     4637.734    1574.4753    2886.2177    311.23498     5294 
340000000   -3857.6745     528.8605    4637.3389    1558.8657    2827.6694    311.20846     5293 
341000000   -3817.0483    598.57662    4505.9211    1567.6561    2847.9688    302.38911     5293 
342000000   -3847.4066    494.73274    4663.0614    1514.2514     2827.888    312.93468     5293 
343000000   -3816.9964    638.51243    4700.4723    1592.2482    2863.2606     315.4453     5294 
344000000   -3816.2153     601.0958    4628.5846    1560.4454    2856.8657    310.62096     5295 
345000000   -3909.2601    487.67765    4645.9184    1540.0522    2856.8855    311.78423     5295 
346000000   -3738.6636     630.3347    4604.5589    1546.9382    2822.0601    309.00862     5295 
347000000   -3795.0713    645.22577    4629.6513    1553.3036    2886.9935    310.69255     5294 
348000000   -3781.4882    560.97787    4707.0047    1522.5511     2819.915    315.88368     5294 
349000000   -3800.4602    625.44672    4520.9386    1568.2115    2857.6954    303.39692     5294 
350000000   -3863.3962    589.78359    4531.2907    1591.1623    2862.0175    304.09164     5293 
351000000   -3911.8845    505.32069    4557.3474    1563.9746    2853.2306    305.84029     5294 
352000000   -3955.8638    407.75191    4635.2735    1538.7055    2824.9103    311.06985     5295 
353000000   -3913.8401    508.09414    4653.1753    1612.3292     2809.605    312.27123     5295 
354000000   -3943.4805    496.84501    4583.5698    1525.9297    2914.3959    307.60006     5295 
355000000   -3910.1355    540.58273    4560.8139    1572.1601    2878.5581    306.07292     5295 
356000000   -3887.6433    599.83836    4556.5629    1599.8768    2887.6048    305.78764     5294 
357000000   -3898.0492    568.12572    4590.5533    1620.8754    2845.2995    308.06871     5294 
358000000    -3849.502    496.43422    4574.5453    1554.9101    2791.0261    306.99443     5294 
359000000   -3834.9161    619.18937    4581.6216    1582.4724     2871.633    307.46931     5293 
360000000   -3858.7423    599.11181    4602.7962    1559.9769    2897.8773    308.89033     5294 
361000000   -3913.5777    505.36701    4667.8443    1541.1142    2877.8305    313.25566     5294 
362000000   -3774.8155    603.15782    4582.5547    1540.6282    2837.3451    307.53194     5295 
363000000   -3915.6812    594.69763    4592.2035    1627.3062    2883.0727    308.17946     5295 
364000000   -3842.5775     621.3104    4553.2627    1579.4934    2884.3944    305.56617     5295 
365000000   -3878.6291    511.75214    4631.1637    1551.3773    2839.0039    310.79405     5295 
366000000   -3849.4518    602.24103    4600.9827    1583.2672    2868.4256    308.76863     5295 
367000000   -3879.3318    541.57464    4665.1294     1535.456    2885.4505    313.07346     5294 
368000000   -3857.3828    520.40613    4676.5031    1551.1503    2826.6387    313.83675     5295 
369000000   -3822.0197    562.27847    4714.2316    1528.7952     2855.503    316.36868     5295 
370000000   -3922.3511    466.78698    4592.5473    1580.6396    2808.4984    308.20253     5294 
371000000    -3899.559     546.3997    4663.5853    1553.1398    2892.8189    312.96984     5293 
372000000   -3846.0463    515.20048    4614.9943     1554.114    2807.1328    309.70893     5294 
373000000   -3848.2393    619.88774     4673.209    1569.8681    2898.2589    313.61568     5294 
374000000    -3781.496    598.15306    4579.6987     1558.513     2821.136    307.34027     5295 
375000000   -3904.0046    509.45545    4608.5585     1565.787    2847.6731    309.27703     5295 
376000000   -3888.8364    537.17829    4498.6816    1567.3265    2858.6883    301.90327     5295 
377000000   -3789.8016    710.55209    4574.0441    1636.7348    2863.6189    306.96079     5295 
378000000   -3902.3833    412.34726    4651.3969    1507.8348    2806.8959    312.15189     5295 
379000000   -3936.5015    420.23614     4616.569    1531.5055    2825.2322    309.81461     5295 
380000000   -3810.2847    620.56156     4696.771    1567.9825    2862.8637    315.19691     5295 
381000000   -3776.5609    620.49586    4655.8735    1578.5574    2818.4994    312.45231     5295 
382000000   -3901.1428    555.67489    4634.1361    1575.3904    2881.4273    310.99353     5295 
383000000   -3935.0304    544.65194    4627.1072    1581.3393     2898.343    310.52182     5295 
384000000    -3904.875    520.31587    4606.3442    1574.1888    2851.0021    309.12843     5295 
385000000   -3904.8095    551.35138     4650.341     1578.283    2877.8779    312.08102     5295 
386000000   -3874.5735    604.45433    4622.9187     1586.881    2892.1468    310.24073     5295 
387000000   -3837.2583    500.65004     4601.317    1514.0601    2823.8483    308.79106     5295 
388000000    -3892.556    473.77024    4641.3016    1539.1426    2827.1837    311.47439     5295 
389000000   -3833.9705    601.68618    4571.3368    1574.1889    2861.4678    306.77911     5293 
390000000   -3811.4789    570.92138    4668.6532     1524.321    2858.0793    313.30994     5294 
391000000   -3773.1394    611.92164     4697.817    1529.1376    2855.9235    315.26711     5293 
392000000   -3787.7124    619.77613    4683.8192     1570.131    2837.3576    314.32772     5294 
393000000   -3824.1168    639.44037    4711.6177    1621.3694    2842.1878    316.19326     5294 
394000000   -3765.3958     651.4007    4574.7159    1564.7634     2852.033    307.00588     5293 
395000000   -3811.8118     678.7475    4624.4821    1578.0384    2912.5209    310.34565     5294 
396000000   -3871.3276    595.73417    4554.7421    1583.0308     2884.031    305.66545     5293 
397000000   -3800.5311    648.87385    4595.0854    1513.8657    2935.5393    308.37286     5294 
398000000   -3753.9959     669.4203    4610.7404    1565.3092     2858.107    309.42345     5294 
399000000   -3809.5152    612.94838    4638.4544    1537.9707    2884.4929    311.28332     5294 
400000000   -3875.6391     628.7636    4656.8865    1544.5171    2959.8856    312.52029     5294 
Loop time of 26629.2 on 10 procs for 100000000 steps with 5000 atoms

Performance: 8111.402 ns/day, 0.003 hours/ns, 3755.279 timesteps/s
99.7% CPU use with 10 MPI tasks x no OpenMP threads

MPI task timing breakdown:
Section |  min time  |  avg time  |  max time  |%varavg| %total
---------------------------------------------------------------
Pair    | 9289.7     | 10490      | 11572      | 737.0 | 39.39
Bond    | 1583.8     | 1598.3     | 1626       |  32.6 |  6.00
Neigh   | 3520.5     | 3560.4     | 3601       |  46.7 | 13.37
Comm    | 5129.9     | 6374.4     | 7909.3     |1111.9 | 23.94
Output  | 0.53807    | 0.53817    | 0.53832    |   0.0 |  0.00
Modify  | 3648.9     | 3662.8     | 3676.2     |  13.0 | 13.75
Other   |            | 943        |            |       |  3.54

Nlocal:    500 ave 510 max 493 min
Histogram: 1 1 2 2 2 0 0 0 1 1
Nghost:    753.7 ave 1003 max 608 min
Histogram: 2 1 1 2 1 1 0 1 0 1
Neighs:    10095.1 ave 11133 max 8902 min
Histogram: 1 2 1 0 1 0 1 0 2 2

Total # of neighbors = 100951
Ave neighs/atom = 20.1902
Ave special neighs/atom = 7.4888
Neighbor list builds = 5030720
Dangerous builds = 0
System init for write_restart ...
Total wall time: 7:23:49
