LAMMPS (5 Jun 2019)
Reading restart file ...
  restart file = 5 Jun 2019, LAMMPS = 5 Jun 2019
WARNING: Restart file used different # of processors (../read_restart.cpp:740)
  restoring atom style full from restart
  orthogonal box = (-250 -250 -250) to (250 250 250)
  1 by 2 by 5 MPI processor grid
  restoring pair style lj/cut from restart
  restoring bond style harmonic from restart
  restoring angle style cosine from restart
  5000 atoms
  5295 bonds
  4600 angles
Finding 1-2 1-3 1-4 neighbors ...
  special bond factors lj:   1          1          1         
  special bond factors coul: 0          0          0         
  3 = max # of 1-2 neighbors
  4 = max # of 1-3 neighbors
  8 = max # of 1-4 neighbors
  16 = max # of special neighbors
  special bonds CPU = 0.0119068 secs
  read_restart CPU = 0.128257 secs
1000 atoms in group rxnSites
Neighbor list info ...
  update every 1 steps, delay 1 steps, check yes
  max neighbors/atom: 2000, page size: 100000
  master list distance cutoff = 26.9
  ghost atom cutoff = 26.9
  binsize = 13.45, bins = 38 38 38
  2 neighbor lists, perpetual/occasional/extra = 1 1 0
  (1) pair lj/cut, perpetual
      attributes: half, newton on
      pair build: half/bin/newton
      stencil: half/bin/3d/newton
      bin: standard
  (2) fix bond/create/random, occasional, copy from (1)
      attributes: half, newton on
      pair build: copy
      stencil: none
      bin: none
Setting up Verlet run ...
  Unit style    : real
  Current step  : 300000000
  Time step     : 25
WARNING: Inconsistent image flags (../domain.cpp:784)
Per MPI rank memory allocation (min/avg/max) = 10.27 | 10.55 | 11.2 Mbytes
Step E_pair PotEng KinEng E_bond E_angle Temp Bonds 
300000000   -3871.1467    520.89237    4604.6364    1601.0349    2791.0041    309.01382     5295 
301000000   -3905.8606    627.24644    4547.8636    1643.8667    2889.2403    305.20384     5295 
302000000   -3900.0385    553.11241    4568.8748    1568.0166    2885.1343    306.61389     5294 
303000000   -3916.9286    476.69966    4635.7076    1591.4309    2802.1974    311.09899     5294 
304000000   -3883.5596    566.07404    4612.4908    1568.4573    2881.1763    309.54092     5295 
305000000   -3911.1941    517.70796    4554.4627    1542.6615    2886.2406     305.6467     5295 
306000000   -3849.4062    549.61055    4540.0218    1511.2856    2887.7312    304.67758     5295 
307000000   -3888.7695    589.99299    4508.9271    1599.5671    2879.1953    302.59084     5295 
308000000   -3887.5099    644.19119    4665.0906    1622.4156    2909.2855    313.07086     5296 
309000000   -3892.9501    580.58822    4626.2455    1573.9458    2899.5925    310.46399     5296 
310000000   -3869.1315    599.99046    4601.7564    1573.4922    2895.6297    308.82055     5295 
311000000   -3839.3851    657.75013    4626.0416    1570.0877    2927.0476    310.45031     5296 
312000000   -3905.5687    520.52357    4679.5698    1515.8806    2910.2117    314.04255     5296 
313000000   -3838.0613    662.52395    4575.7572    1581.0671    2919.5182    307.07576     5296 
314000000   -3764.0036    669.63073    4589.5279    1543.1854    2890.4489     307.9999     5297 
315000000   -3827.6767    608.64899    4658.6209    1542.1257    2894.1999    312.63668     5297 
316000000   -3860.4947    537.54678    4667.6218    1606.0357    2792.0058    313.24072     5296 
317000000   -3888.4233    496.57492    4612.0829    1539.2043    2845.7939    309.51355     5297 
318000000   -3912.2153    493.36491    4649.5584    1565.3036    2840.2766     312.0285     5297 
319000000   -3846.5942    471.14784    4597.0201    1500.0942    2817.6478     308.5027     5296 
320000000   -3779.0372    643.86497    4656.2188    1558.5816    2864.3205    312.47548     5295 
321000000   -3880.7081    589.97797    4735.6277    1565.0715    2905.6146    317.80455     5294 
322000000   -3895.6458    596.91425     4569.465    1631.1868    2861.3732    306.65349     5295 
323000000   -3828.7416    576.14214    4610.5756    1526.8096    2878.0741     309.4124     5295 
324000000   -3762.7981    675.33018    4640.7718    1612.4043     2825.724    311.43884     5295 
325000000    -3806.083     632.6226    4757.1367    1580.4764    2858.2292    319.24801     5295 
326000000   -3850.3298    533.87142    4652.4628    1537.0691    2847.1321    312.22342     5294 
327000000   -3897.1417    553.66955    4578.1807    1563.7612      2887.05     307.2384     5295 
328000000   -3863.6228     589.0033    4593.3201    1573.6232    2879.0029    308.25439     5295 
329000000   -3830.9356     623.2879    4629.0728    1613.0259    2841.1976    310.65373     5295 
330000000   -3867.7551    656.39364    4673.5478    1584.8768     2939.272    313.63842     5294 
331000000   -3901.6198    562.04836    4675.2911    1556.6326    2907.0356    313.75541     5295 
332000000    -3802.846    645.99239    4654.8089    1587.7243     2861.114    312.38086     5295 
333000000   -3832.4476    677.01136    4547.8704    1591.0041    2918.4549     305.2043     5294 
334000000    -3840.259    585.86433    4598.5863    1541.3547    2884.7686     308.6078     5296 
335000000   -3910.6826    612.60294    4675.7663    1581.3624    2941.9231     313.7873     5295 
336000000    -3865.354    643.14242    4625.6313    1594.0733    2914.4231    310.42277     5296 
337000000   -3908.2376    535.12691    4655.9732    1571.2113    2872.1532      312.459     5295 
338000000   -3876.5732    579.49907    4590.2249    1530.4768    2925.5955    308.04668     5296 
339000000   -3985.9166     430.7981    4574.3269    1549.0056    2867.7091    306.97977     5296 
340000000   -3865.0677     519.9854    4611.3504    1538.2062    2846.8469    309.46439     5296 
341000000   -3890.5198    571.73983    4571.7423    1593.6401    2868.6196    306.80632     5296 
342000000   -3909.1796     514.1868    4579.0825    1559.8626    2863.5037    307.29892     5296 
343000000   -3921.4402    512.09404     4650.092    1577.3754    2856.1588    312.06431     5296 
344000000   -3975.7129    486.51604    4588.6793    1560.4343    2901.7946    307.94295     5296 
345000000   -3890.7331    617.46812     4527.897     1615.611    2892.5902    303.86389     5295 
346000000   -3926.1346    625.67723    4668.3337    1608.8615    2942.9504     313.2885     5296 
347000000   -3820.2789    605.47839    4489.1497    1571.0089    2854.7484    301.26359     5296 
348000000   -3881.9944    582.03009    4621.5297    1561.5523    2902.4722    310.14752     5296 
349000000    -3798.613    588.02876    4568.3103    1541.6107    2845.0311      306.576     5296 
350000000   -3938.2283    518.77601    4592.7361    1594.0939    2862.9103     308.2152     5296 
351000000   -3825.5528    589.09947    4631.6396     1604.908    2809.7444    310.82599     5296 
352000000   -3813.7677    642.46135    4623.7413    1600.6092    2855.6198    310.29594     5295 
353000000   -3851.5665    591.25581    4606.1193    1582.4119    2860.4104    309.11334     5295 
354000000   -3908.5664    610.83826    4663.6208    1574.3334    2945.0713    312.97222     5293 
355000000   -3769.9481    633.68679    4597.9381    1532.5941    2871.0407     308.5643     5294 
356000000   -3896.8758    513.73507    4658.0034    1571.8601    2838.7508    312.59524     5294 
357000000    -3892.987    566.80035    4646.9996    1561.6875    2898.0998    311.85678     5294 
358000000   -3856.3114       660.04    4590.5462    1616.7054     2899.646    308.06824     5294 
359000000   -3799.0914    677.55322    4574.2387    1570.5295    2906.1151    306.97385     5295 
360000000    -3938.586    581.82899    4665.4783    1605.3899    2915.0251    313.09688     5294 
361000000   -3783.3747    634.71112     4584.851    1516.9605    2901.1254    307.68604     5295 
362000000   -3832.4109    676.84697    4596.2589    1575.4871    2933.7708    308.45161     5295 
363000000   -3837.4685    560.92897    4666.1793    1525.4712    2872.9263    313.14392     5294 
364000000   -4067.9453    562.14217    4676.7571    1656.0026    2974.0848    313.85379     5294 
365000000   -3866.8614    580.45565    4638.7333    1559.0846    2888.2325    311.30204     5295 
366000000   -3837.0162    627.02699    4692.5258     1531.197    2932.8462    314.91202     5296 
367000000   -3816.5518    627.88833    4574.1452    1583.4384    2861.0017    306.96758     5296 
368000000   -3900.3284    597.07125    4619.2904    1549.1525    2948.2472    309.99724     5296 
369000000    -3834.346    578.73395     4650.028    1549.1058    2863.9742    312.06002     5295 
370000000   -3877.9061    548.08865    4649.4687    1554.9448      2871.05    312.02248     5297 
371000000   -3866.1534    676.02688     4606.659    1608.1374    2934.0429    309.14956     5297 
372000000   -3832.5829    543.11938     4740.548    1512.7584    2862.9439    318.13475     5297 
373000000   -3810.0812    580.97358    4689.8496    1550.1396    2840.9152    314.73241     5295 
374000000   -3876.9142    568.68356     4621.628     1565.756    2879.8417    310.15411     5296 
375000000   -3931.9236    569.04196    4605.6358    1567.2087    2933.7568    309.08089     5296 
376000000   -3817.3845    595.16952    4669.0472    1578.9896    2833.5645    313.33638     5297 
377000000   -3915.6874     422.6941     4597.173    1516.2333    2822.1481    308.51295     5297 
378000000   -3881.7309    569.31927    4536.3695    1595.2972     2855.753    304.43248     5297 
379000000   -3870.4155    523.92886    4611.2156    1565.2492    2829.0951    309.45535     5297 
380000000   -3784.5289    670.39198    4478.2331    1612.3894    2842.5314    300.53098     5298 
381000000   -3936.6159    529.60843    4657.4179    1586.8359    2879.3885    312.55595     5298 
382000000   -3863.7929    548.51023    4647.7659     1586.585    2825.7181    311.90821     5298 
383000000   -3939.3423     458.1914    4709.3524    1511.7193    2885.8144    316.04123     5298 
384000000   -3925.4121    493.21924    4714.3193    1529.0725    2889.5588    316.37456     5298 
385000000   -3916.2351    485.69387    4638.7336    1521.1462    2880.7827    311.30206     5298 
386000000   -3844.6191    578.98737    4654.7278    1582.4588    2841.1477    312.37542     5298 
387000000   -3873.7367    621.49588    4537.8344    1620.3229    2874.9096    304.53079     5298 
388000000   -3898.8971    552.75186    4674.2704    1575.8615    2875.7875    313.68691     5298 
389000000   -3830.4273    559.62787    4617.6136    1545.9653    2844.0899    309.88471     5298 
390000000   -3827.4847    659.82636    4616.2912    1574.4451     2912.866    309.79597     5298 
391000000   -3830.9831    598.65117     4629.433    1579.5344    2850.0999     310.6779     5298 
392000000   -3898.5395    498.88608    4648.7822    1543.7827    2853.6429    311.97641     5298 
393000000   -4036.8836    407.64859    4649.6839     1589.361    2855.1712    312.03693     5298 
394000000   -3783.9439    643.38166    4598.0943    1576.5983    2850.7273    308.57478     5298 
395000000   -3868.5921     584.0117    4611.0138    1631.9865    2820.6173    309.44181     5298 
396000000   -3866.5889    576.03106    4664.2557    1532.1399      2910.48    313.01483     5298 
397000000   -3838.2206    587.21352    4578.9317    1560.3054    2865.1287     307.2888     5298 
398000000   -3822.4549    571.35493    4682.8189    1521.1348    2872.6751    314.26059     5297 
399000000   -3809.3536    642.94119    4682.1982    1589.6307     2862.664    314.21894     5298 
400000000   -3766.8744    658.49758    4629.6623    1520.8941    2904.4779    310.69329     5297 
Loop time of 27243.2 on 10 procs for 100000000 steps with 5000 atoms

Performance: 7928.592 ns/day, 0.003 hours/ns, 3670.645 timesteps/s
99.6% CPU use with 10 MPI tasks x no OpenMP threads

MPI task timing breakdown:
Section |  min time  |  avg time  |  max time  |%varavg| %total
---------------------------------------------------------------
Pair    | 9325.2     | 10550      | 11918      | 736.7 | 38.73
Bond    | 1582.8     | 1609.2     | 1655.4     |  53.6 |  5.91
Neigh   | 3579.8     | 3601.6     | 3633.6     |  26.0 | 13.22
Comm    | 5234.5     | 6741.5     | 8362.3     |1091.4 | 24.75
Output  | 0.6349     | 0.63505    | 0.63518    |   0.0 |  0.00
Modify  | 3715       | 3772.9     | 3833.6     |  60.5 | 13.85
Other   |            | 967        |            |       |  3.55

Nlocal:    500 ave 525 max 473 min
Histogram: 3 0 0 0 1 1 0 2 2 1
Nghost:    720 ave 975 max 599 min
Histogram: 3 1 3 1 0 0 0 0 0 2
Neighs:    9951.4 ave 11488 max 8523 min
Histogram: 1 1 0 2 3 0 0 1 0 2

Total # of neighbors = 99514
Ave neighs/atom = 19.9028
Ave special neighs/atom = 7.5012
Neighbor list builds = 5030450
Dangerous builds = 0
System init for write_restart ...
Total wall time: 7:34:03
