LAMMPS (5 Jun 2019)
Reading restart file ...
  restart file = 5 Jun 2019, LAMMPS = 5 Jun 2019
WARNING: Restart file used different # of processors (../read_restart.cpp:740)
  restoring atom style full from restart
  orthogonal box = (-250 -250 -250) to (250 250 250)
  1 by 2 by 5 MPI processor grid
  restoring pair style lj/cut from restart
  restoring bond style harmonic from restart
  restoring angle style cosine from restart
  5000 atoms
  5295 bonds
  4600 angles
Finding 1-2 1-3 1-4 neighbors ...
  special bond factors lj:   1          1          1         
  special bond factors coul: 0          0          0         
  3 = max # of 1-2 neighbors
  4 = max # of 1-3 neighbors
  8 = max # of 1-4 neighbors
  16 = max # of special neighbors
  special bonds CPU = 0.0118202 secs
  read_restart CPU = 0.191643 secs
1000 atoms in group rxnSites
Neighbor list info ...
  update every 1 steps, delay 1 steps, check yes
  max neighbors/atom: 2000, page size: 100000
  master list distance cutoff = 26.9
  ghost atom cutoff = 26.9
  binsize = 13.45, bins = 38 38 38
  2 neighbor lists, perpetual/occasional/extra = 1 1 0
  (1) pair lj/cut, perpetual
      attributes: half, newton on
      pair build: half/bin/newton
      stencil: half/bin/3d/newton
      bin: standard
  (2) fix bond/create/random, occasional, copy from (1)
      attributes: half, newton on
      pair build: copy
      stencil: none
      bin: none
Setting up Verlet run ...
  Unit style    : real
  Current step  : 300000000
  Time step     : 25
WARNING: Inconsistent image flags (../domain.cpp:784)
Per MPI rank memory allocation (min/avg/max) = 10.27 | 10.55 | 11.2 Mbytes
Step E_pair PotEng KinEng E_bond E_angle Temp Bonds 
300000000   -3871.1467    520.89237    4604.6364    1601.0349    2791.0041    309.01382     5295 
301000000   -3947.2602    495.51078    4531.7802    1551.1654    2891.6056    304.12449     5295 
302000000    -3823.816    548.75763    4552.0089    1546.9478    2825.6258    305.48203     5295 
303000000   -3861.5599    621.12205    4600.2432    1581.5354    2901.1466      308.719     5294 
304000000   -3888.2335    582.42415    4614.0253    1585.7763    2884.8813     309.6439     5294 
305000000   -3892.6042     493.6054    4554.6163    1584.1255    2802.0841      305.657     5294 
306000000   -3879.8083    560.84253    4714.0746    1523.0781    2917.5727    316.35814     5294 
307000000   -3970.3462    423.75861    4664.8049    1554.0542    2840.0506    313.05168     5294 
308000000   -3861.7488    559.02167    4629.0852     1536.649    2884.1215    310.65456     5293 
309000000   -3930.1168    515.99381    4720.6219    1557.7189    2888.3917    316.79752     5295 
310000000   -3828.4786    577.33734    4575.3989    1552.9877    2852.8282    307.05171     5294 
311000000   -3892.7482    557.30086    4659.3244    1591.2824    2858.7666    312.68389     5294 
312000000   -3873.2913    620.20473     4632.079     1606.346      2887.15    310.85547     5293 
313000000   -3761.7545    682.69169    4669.0279    1586.3501    2858.0962    313.33509     5294 
314000000   -3851.0196    504.27211    4601.4204    1573.4835    2781.8083      308.798     5293 
315000000   -3830.9408    642.18989    4706.1472    1621.9354    2851.1953    315.82614     5292 
316000000   -3811.6149    546.27007    4615.0615    1533.1957    2824.6892    309.71344     5293 
317000000   -3866.3441    553.75609    4612.1332    1532.1481    2887.9521    309.51692     5295 
318000000   -3874.5347     521.8214    4619.2825     1572.874    2823.4821    309.99671     5295 
319000000   -3855.9459    464.84541    4626.3784    1484.8674    2835.9239    310.47291     5295 
320000000    -3836.981    577.53615    4646.3025    1552.5616    2861.9556       311.81     5295 
321000000   -3848.2204     559.4754    4671.2447    1556.9902    2850.7056    313.48386     5296 
322000000   -3866.5475    517.93709    4680.6806    1525.9437    2858.5408    314.11709     5296 
323000000   -3842.8069    595.43669    4683.8734    1572.4606    2865.7829    314.33136     5295 
324000000   -3794.8979    579.55214    4531.9243    1583.5376    2790.9125    304.13417     5295 
325000000    -3920.713    509.64724    4578.4532    1569.5333     2860.827    307.25669     5296 
326000000   -3819.7699    593.01479    4574.9846    1540.6535    2872.1312    307.02391     5296 
327000000   -3918.9018    429.20369    4565.1054     1543.102    2805.0035    306.36092     5296 
328000000   -3904.0189    543.64858    4499.9948     1589.538    2858.1295     301.9914     5296 
329000000   -3891.2208    614.70629    4684.3396    1572.7507    2933.1764    314.36265     5295 
330000000   -3878.5064    585.42788    4608.0517    1588.8714    2875.0628    309.24302     5296 
331000000   -3901.7252    494.57577    4731.9928    1507.1388    2889.1622    317.56062     5296 
332000000   -3921.4383     473.6917    4634.3464    1523.4939     2871.636    311.00764     5295 
333000000   -3865.0824    629.34976    4677.0993    1608.3769    2886.0553    313.87676     5295 
334000000   -3900.4369    463.42444    4575.6546    1538.4279    2825.4335    307.06887     5295 
335000000   -3886.1721    637.28411    4627.9443    1605.3489    2918.1073      310.578     5295 
336000000   -3887.2699     523.8219    4651.4808    1593.8345    2817.2573    312.15752     5294 
337000000    -3821.442    617.67597    4638.9543    1567.0146    2872.1034    311.31687     5294 
338000000   -3938.0375    434.29305    4636.6664    1533.3757    2838.9548    311.16333     5296 
339000000   -3892.9381     493.0128    4630.3691    1564.2572    2821.6937    310.74073     5296 
340000000   -3880.2922    551.43094    4646.3462    1566.1086    2865.6145    311.81294     5296 
341000000   -3896.7568    561.30694    4604.8902    1572.7701    2885.2936    309.03085     5296 
342000000   -3860.9199    515.42157    4589.4153    1509.9367    2866.4048    307.99234     5296 
343000000   -3868.7471     593.2893    4624.2147    1561.5327    2900.5038    310.32771     5295 
344000000   -3853.8088    503.40888    4650.3355    1606.6442    2750.5735    312.08065     5296 
345000000   -3820.5674    564.83451    4644.9331    1541.2643    2844.1377     311.7181     5296 
346000000   -3822.2086    538.12158    4638.0212    1538.5326    2821.7975    311.25425     5294 
347000000   -3883.0699    548.20876    4589.0341    1553.7407     2877.538    307.96676     5296 
348000000   -3870.0108    665.03567    4638.8755    1573.6991    2961.3473    311.31158     5296 
349000000   -3867.4419    628.11324    4663.5451    1574.8265    2920.7286    312.96714     5296 
350000000   -3875.7984    579.90453    4536.3916    1583.6351    2872.0679    304.43396     5295 
351000000   -3850.8611    504.54448    4659.5462    1534.7271    2820.6785    312.69878     5295 
352000000   -3926.2252    480.27995    4629.3181    1540.1347    2866.3705    310.67019     5294 
353000000   -3946.5084    480.32616    4611.0662    1568.4401    2858.3945    309.44532     5295 
354000000   -3890.6695    591.00977    4693.1258    1598.8415    2882.8377    314.95228     5296 
355000000   -3856.5129    547.06483    4645.8165    1510.7214    2892.8564    311.77738     5296 
356000000   -3833.1274     610.0149    4576.4846    1582.3957    2860.7466    307.12457     5296 
357000000   -3952.6351    497.58531    4645.1845    1581.9569    2868.2635    311.73497     5294 
358000000   -3860.2571    562.85683    4654.4303    1539.3846    2883.7293    312.35546     5296 
359000000   -3957.9516    460.85605    4531.6893    1551.1123    2867.6954     304.1184     5295 
360000000   -3827.7379     621.5178    4525.1204    1558.3335    2890.9223    303.67756     5296 
361000000    -3757.381    637.68728    4590.7574    1547.8907    2847.1776    308.08241     5296 
362000000   -3932.8727     454.4926    4679.0153    1515.3124    2872.0529    314.00534     5296 
363000000   -3884.6025    531.47081    4628.4696     1556.052    2860.0213    310.61325     5296 
364000000   -3913.8634    532.57484    4633.2987    1571.8864    2874.5519    310.93733     5296 
365000000   -3906.9673    544.19609    4706.8589    1576.9658    2874.1976     315.8739     5296 
366000000   -3953.2315    456.48192    4749.6778    1574.8602    2834.8533    318.74744     5296 
367000000   -3851.7671    573.25114    4501.0051    1510.3662    2914.6521     302.0592     5296 
368000000   -3835.1157    548.64349    4674.5674    1535.8475    2847.9117    313.70684     5296 
369000000   -3815.1689    632.18425    4612.8273    1573.9651     2873.388    309.56351     5295 
370000000   -3821.7302    659.37555    4631.0937    1603.1695    2877.9362    310.78935     5296 
371000000    -3817.386    607.17351     4653.744     1547.379    2877.1805     312.3094     5296 
372000000   -3829.3113    594.12635     4652.346    1563.7351    2859.7026    312.21558     5295 
373000000   -3822.4161    583.20843    4578.6216    1568.7552    2836.8693    307.26799     5295 
374000000   -3856.0948    531.77567    4616.5568    1547.5419    2840.3286    309.81379     5295 
375000000   -3866.8519    555.12707    4711.6863    1601.4202    2820.5588    316.19786     5296 
376000000   -3805.1446    618.31225    4586.8226    1567.8784    2855.5784    307.81835     5295 
377000000   -3899.8421    595.08462    4720.0922    1621.5394    2873.3873    316.76198     5295 
378000000   -3874.3774    537.22147     4603.922    1540.2478     2871.351    308.96588     5297 
379000000   -3764.3281    696.00311    4565.2291    1554.1915    2906.1397    306.36923     5297 
380000000    -3882.206    525.65895    4566.5182    1511.0978    2896.7672    306.45574     5297 
381000000   -3928.7789    542.73905    4627.4399    1565.1993    2906.3187    310.54415     5296 
382000000   -3816.4341    558.02521    4571.2448    1532.4994      2841.96    306.77294     5297 
383000000   -3956.3457    538.47249    4609.7783    1592.5032     2902.315    309.35889     5297 
384000000   -3851.9431    687.81597    4595.0885    1631.2547    2908.5044    308.37307     5297 
385000000   -3943.3906    448.17478    4657.3074    1574.7859    2816.7795    312.54854     5296 
386000000   -3837.2241     682.0097    4618.8875    1596.4537    2922.7801     309.9702     5297 
387000000   -3849.8799    553.37868    4635.5764    1549.1682    2854.0904    311.09018     5297 
388000000    -3919.481    603.28019    4679.8437    1603.5017    2919.2595    314.06093     5298 
389000000   -3914.0772    529.06077    4664.5305    1565.4001    2877.7378    313.03327     5297 
390000000   -3864.8317    558.46416    4559.1634    1571.7967    2851.4991    305.96216     5297 
391000000   -3846.1646    571.99355    4711.4382     1576.419    2841.7392    316.18121     5298 
392000000   -3825.9634    592.05083    4627.5647    1536.7862     2881.228    310.55252     5298 
393000000    -3867.468    579.54422    4516.6858    1531.4504    2915.5619    303.11152     5297 
394000000   -3917.5589    445.60919    4580.6017    1552.4277    2810.7404    307.40087     5297 
395000000   -3932.8854    518.35528    4603.0751    1556.6539    2894.5867    308.90904     5298 
396000000    -3920.918    533.68764    4564.9415    1606.8302    2847.7755    306.34992     5297 
397000000   -3906.2162    487.89825    4584.2703    1580.9195    2813.1949    307.64707     5297 
398000000   -3972.7748    441.90558      4589.85    1569.3764     2845.304    308.02151     5297 
399000000   -3838.9392    597.08426    4581.1796    1566.5938    2869.4297    307.43966     5297 
400000000    -4059.722    453.69101    4571.8569    1606.8529    2906.5601    306.81401     5297 
Loop time of 27227.1 on 10 procs for 100000000 steps with 5000 atoms

Performance: 7933.276 ns/day, 0.003 hours/ns, 3672.813 timesteps/s
99.7% CPU use with 10 MPI tasks x no OpenMP threads

MPI task timing breakdown:
Section |  min time  |  avg time  |  max time  |%varavg| %total
---------------------------------------------------------------
Pair    | 9527       | 10596      | 11906      | 699.7 | 38.92
Bond    | 1574.8     | 1612       | 1652       |  51.8 |  5.92
Neigh   | 3560.7     | 3588.2     | 3616       |  30.1 | 13.18
Comm    | 5208.1     | 6729.2     | 8207.5     |1093.6 | 24.72
Output  | 0.54742    | 0.54755    | 0.54773    |   0.0 |  0.00
Modify  | 3679.8     | 3702.5     | 3788.1     |  50.2 | 13.60
Other   |            | 999.1      |            |       |  3.67

Nlocal:    500 ave 523 max 478 min
Histogram: 1 1 2 1 0 1 1 1 0 2
Nghost:    740.1 ave 898 max 609 min
Histogram: 1 1 2 1 1 1 1 0 0 2
Neighs:    10451.5 ave 12027 max 9143 min
Histogram: 1 1 0 3 1 1 1 1 0 1

Total # of neighbors = 104515
Ave neighs/atom = 20.903
Ave special neighs/atom = 7.4996
Neighbor list builds = 5030688
Dangerous builds = 0
System init for write_restart ...
Total wall time: 7:33:47
