LAMMPS (5 Jun 2019)
Reading restart file ...
  restart file = 5 Jun 2019, LAMMPS = 5 Jun 2019
WARNING: Restart file used different # of processors (../read_restart.cpp:740)
  restoring atom style full from restart
  orthogonal box = (-250 -250 -250) to (250 250 250)
  1 by 2 by 5 MPI processor grid
  restoring pair style lj/cut from restart
  restoring bond style harmonic from restart
  restoring angle style cosine from restart
  5000 atoms
  5295 bonds
  4600 angles
Finding 1-2 1-3 1-4 neighbors ...
  special bond factors lj:   1          1          1         
  special bond factors coul: 0          0          0         
  3 = max # of 1-2 neighbors
  4 = max # of 1-3 neighbors
  8 = max # of 1-4 neighbors
  16 = max # of special neighbors
  special bonds CPU = 0.00907313 secs
  read_restart CPU = 0.151103 secs
1000 atoms in group rxnSites
Neighbor list info ...
  update every 1 steps, delay 1 steps, check yes
  max neighbors/atom: 2000, page size: 100000
  master list distance cutoff = 26.9
  ghost atom cutoff = 26.9
  binsize = 13.45, bins = 38 38 38
  2 neighbor lists, perpetual/occasional/extra = 1 1 0
  (1) pair lj/cut, perpetual
      attributes: half, newton on
      pair build: half/bin/newton
      stencil: half/bin/3d/newton
      bin: standard
  (2) fix bond/create/random, occasional, copy from (1)
      attributes: half, newton on
      pair build: copy
      stencil: none
      bin: none
Setting up Verlet run ...
  Unit style    : real
  Current step  : 300000000
  Time step     : 25
WARNING: Inconsistent image flags (../domain.cpp:784)
Per MPI rank memory allocation (min/avg/max) = 10.27 | 10.55 | 11.2 Mbytes
Step E_pair PotEng KinEng E_bond E_angle Temp Bonds 
300000000   -3871.1467    520.89237    4604.6364    1601.0349    2791.0041    309.01382     5295 
301000000   -3977.4943    489.18944    4660.5798    1573.7737      2892.91    312.76815     5296 
302000000   -3904.0011    589.45883    4598.7786     1590.556    2902.9039    308.62071     5295 
303000000   -3814.1211    593.71441    4628.4295    1533.2697    2874.5658    310.61056     5295 
304000000   -3842.8509    611.99266     4524.909    1612.6535    2842.1901    303.66338     5295 
305000000    -3865.701    570.87279    4559.3804    1581.8185    2854.7553    305.97673     5296 
306000000   -3920.5206    518.10227    4664.0727    1586.3265    2852.2964    313.00255     5296 
307000000    -3928.281      521.416    4526.9682    1562.5847    2887.1123    303.80157     5296 
308000000   -3840.6659    635.57568    4717.0275    1595.7211    2880.5205     316.5563     5297 
309000000   -3931.2653    486.30271    4603.5457    1573.9843    2843.5837    308.94062     5297 
310000000   -3951.3182    473.72253    4618.8369    1552.6084    2872.4324    309.96681     5296 
311000000    -3914.132    544.64591    4592.7626     1584.632    2874.1459    308.21698     5296 
312000000   -3850.5132    539.65766    4642.3994    1517.3728     2872.798    311.54807     5296 
313000000   -3851.8361    583.37582    4604.5971    1606.6008     2828.611    309.01118     5295 
314000000    -3817.849    595.29843    4604.1382    1553.2088    2859.9387    308.98039     5297 
315000000   -3918.8211    511.27151    4601.4505    1591.0743    2839.0184    308.80002     5297 
316000000   -4024.2141    408.47646    4606.1038    1573.4278    2859.2627     309.1123     5297 
317000000   -3918.5444    503.62518      4600.53    1561.9919    2860.1777    308.73824     5296 
318000000   -3870.4518    511.04709    4706.4577    1539.1888    2842.3101    315.84697     5296 
319000000   -3850.3027    537.96732    4684.4619    1519.6096    2868.6604    314.37085     5296 
320000000   -3893.6762    574.58637    4547.6527    1595.0394    2873.2232    305.18969     5296 
321000000    -3893.187    541.58657    4657.7897    1598.7646    2836.0089     312.5809     5296 
322000000   -3865.7842    599.23493    4715.0598    1568.7707    2896.2484    316.42425     5296 
323000000   -3818.3195     582.5178    4604.4535     1509.929    2890.9083    309.00154     5294 
324000000   -3852.6321    583.90812      4668.61    1564.4905    2872.0498    313.30704     5295 
325000000   -3888.3266    555.77425    4703.8227    1605.9305    2838.1704    315.67014     5295 
326000000   -3821.6429    544.30886    4616.2248    1521.2693    2844.6825    309.79151     5295 
327000000   -3835.3638    631.72186    4570.0601    1556.5718    2910.5139    306.69343     5296 
328000000   -3936.3724      481.427    4551.7461    1530.8628    2886.9366    305.46439     5296 
329000000   -3851.0227     544.1189    4615.4132    1565.2291    2829.9125    309.73705     5296 
330000000   -3807.6149    670.27454    4570.2823    1616.8527    2861.0368    306.70834     5296 
331000000   -3906.8408    522.27915    4578.1894     1533.428    2895.6919    307.23898     5296 
332000000   -3849.7928    599.12919    4671.1209    1593.2131    2855.7088    313.47555     5295 
333000000   -3913.8203     485.3723    4604.4749    1565.3349    2833.8576    309.00298     5296 
334000000   -3911.6296    570.70494    4601.6301    1596.3721    2885.9624    308.81207     5296 
335000000   -3866.5872    546.56763    4523.0227    1589.4098     2823.745    303.53678     5296 
336000000   -3831.2228    510.28278    4532.8431    1530.3258    2811.1798    304.19583     5296 
337000000    -3904.775    550.57728    4669.4689    1570.2954    2885.0569    313.36468     5296 
338000000   -3899.2225    506.39752    4577.9474    1500.8936    2904.7264    307.22274     5296 
339000000   -3852.2463    556.77737     4572.275    1534.5593    2874.4644    306.84207     5296 
340000000   -3847.9888    589.82517     4574.906    1572.6882    2865.1257    307.01863     5296 
341000000   -3765.0452     646.7787    4590.2489    1586.4589     2825.365    308.04828     5296 
342000000   -3883.6894    601.63941    4670.2305     1586.963    2898.3658    313.41579     5294 
343000000   -3877.5401    605.22194    4666.6969    1600.4472    2882.3148    313.17866     5295 
344000000   -3808.0972    585.75498    4652.5656    1527.2682     2866.584    312.23031     5295 
345000000    -3842.118    604.23971    4588.2374    1566.2155    2880.1422    307.91329     5295 
346000000   -3851.3814    565.81121    4582.1869    1545.4916     2871.701    307.50725     5296 
347000000   -3860.2079    605.01338    4692.8366    1595.0811    2870.1402    314.93287     5296 
348000000   -3845.4371    580.15402    4629.8536    1562.5364    2863.0547    310.70613     5296 
349000000   -3918.7182    513.25254    4531.6339      1587.98    2843.9908    304.11467     5296 
350000000     -3897.75    493.28841    4735.2309    1526.5106    2864.5279    317.77793     5296 
351000000   -3905.0173    585.25874    4534.3811    1579.6994    2910.5767    304.29904     5296 
352000000   -3886.5877    542.61866    4624.0844    1567.5605    2861.6458    310.31896     5296 
353000000   -3986.6985    462.04849     4625.216    1564.9267    2883.8203     310.3949     5296 
354000000   -3892.1276    553.35603     4631.025    1565.8232    2879.6604    310.78474     5296 
355000000   -3869.3646    524.98663    4682.7272     1579.929    2814.4222    314.25444     5296 
356000000   -3790.5918    614.90541    4636.0641    1565.8863    2839.6109    311.12291     5295 
357000000   -3844.8424    586.23826    4684.9232    1586.4796    2844.6011    314.40181     5295 
358000000   -3806.5052    599.56194     4557.606    1521.0867    2884.9804    305.85764     5294 
359000000   -3956.4377    523.25347    4558.9627    1595.6774    2884.0138    305.94869     5295 
360000000   -3870.0923    559.57763    4606.4707    1577.5311    2852.1389    309.13692     5295 
361000000   -3853.9793    579.64808    4716.9174    1556.3213    2877.3061    316.54892     5295 
362000000   -3983.9185     408.2706    4664.9699    1541.2793    2850.9097    313.06276     5295 
363000000   -3893.1826    540.25412    4698.9547    1504.4021    2929.0347    315.34346     5295 
364000000   -3845.8907    591.05563    4719.8982    1545.6627    2891.2836    316.74896     5294 
365000000   -3908.3988    436.51969     4612.377    1534.6697    2810.2487    309.53329     5295 
366000000   -3833.2229    558.12531    4669.5441    1539.2631    2852.0852    313.36973     5295 
367000000   -3813.7457    635.05109     4615.749    1567.4731    2881.3236    309.75958     5295 
368000000   -3885.5809    585.48419    4576.3798    1586.1598    2884.9053    307.11754     5295 
369000000   -3892.8428    427.30508    4642.0056    1493.5861    2826.5617    311.52164     5295 
370000000   -3822.0849    583.32981    4692.6161    1569.8585    2835.5563    314.91808     5295 
371000000   -3847.3358    631.70998    4706.1681    1582.2247     2896.821    315.82754     5295 
372000000   -3945.9818    458.53053    4612.3378    1533.6583    2870.8541    309.53066     5295 
373000000    -3872.154    603.62294     4586.999    1567.7448    2908.0321    307.83019     5295 
374000000   -3917.1831    539.45822    4735.2774    1603.7152    2852.9261    317.78104     5294 
375000000   -3821.2495    639.81969    4653.3207    1531.1314    2929.9378    312.28099     5294 
376000000   -3872.7445    521.85697    4619.1935    1575.2037    2819.3978    309.99074     5294 
377000000   -3775.3675    662.06434    4663.6335    1519.4851    2917.9468    312.97307     5294 
378000000   -3820.9144    578.74172    4624.9016    1495.1597    2904.4964     310.3738     5294 
379000000    -4008.383    450.90637     4701.521    1552.9126    2906.3768    315.51568     5294 
380000000   -3915.7103    498.09923    4621.6503    1555.0091    2858.8004    310.15561     5295 
381000000   -3873.5364    568.74456    4615.1461    1557.2407    2885.0403    309.71912     5295 
382000000   -3924.9745    478.93835    4604.1219    1520.7686    2883.1443    308.97929     5295 
383000000   -3843.8077    541.90777    4503.4406    1545.6138    2840.1017    302.22265     5295 
384000000    -3801.461    590.84514    4645.0001    1565.3927    2826.9134     311.7226     5294 
385000000    -3796.653     684.2767    4543.9421    1587.2815    2893.6482    304.94067     5294 
386000000   -3910.5758    498.34025    4683.2368    1565.7329    2843.1831    314.28864     5294 
387000000   -3787.1007    695.57886    4513.6305    1549.1335     2933.546    302.90648     5293 
388000000    -3907.602    562.50754    4588.9332     1654.041    2816.0686    307.95999     5294 
389000000   -3905.1483    523.49846    4682.7681      1551.94    2876.7068    314.25718     5294 
390000000   -3898.9271    584.18546     4591.007    1588.9344    2894.1781    308.09916     5293 
391000000   -3890.2536    595.72099    4585.3963    1605.4091    2880.5655    307.72263     5294 
392000000   -3887.8674    400.98033    4654.0244    1474.0807     2814.767    312.32821     5294 
393000000   -3862.4573    613.84584    4581.5078     1605.047    2871.2561    307.46168     5293 
394000000   -3869.0973    497.20649    4618.9492    1520.0883    2846.2154    309.97434     5294 
395000000    -3871.984    566.87738    4591.0037     1548.928    2889.9333    308.09894     5294 
396000000   -3843.2264    592.80403    4556.6458    1538.5855    2897.4449     305.7932     5295 
397000000   -3898.8154    555.55014    4620.5168    1546.2438    2908.1218    310.07954     5295 
398000000   -3804.8372    644.15705     4645.363    1570.7595    2878.2347    311.74695     5296 
399000000    -3904.334    565.05645    4522.2043    1594.4433    2874.9471    303.48186     5296 
400000000   -3914.6442    389.05925    4629.3438    1499.7463    2803.9572    310.67191     5296 
Loop time of 26975.5 on 10 procs for 100000000 steps with 5000 atoms

Performance: 8007.275 ns/day, 0.003 hours/ns, 3707.072 timesteps/s
99.6% CPU use with 10 MPI tasks x no OpenMP threads

MPI task timing breakdown:
Section |  min time  |  avg time  |  max time  |%varavg| %total
---------------------------------------------------------------
Pair    | 9159.7     | 10525      | 11746      | 733.9 | 39.02
Bond    | 1570.6     | 1606.3     | 1641.2     |  45.8 |  5.95
Neigh   | 3572       | 3598.2     | 3621.1     |  26.6 | 13.34
Comm    | 5279.7     | 6671.9     | 8338.6     |1092.9 | 24.73
Output  | 0.60047    | 0.60064    | 0.60078    |   0.0 |  0.00
Modify  | 3637.3     | 3683.5     | 3772.3     |  61.6 | 13.66
Other   |            | 889.5      |            |       |  3.30

Nlocal:    500 ave 523 max 476 min
Histogram: 1 1 1 1 1 0 2 2 0 1
Nghost:    753.1 ave 932 max 670 min
Histogram: 3 2 2 0 0 1 0 0 0 2
Neighs:    10229.4 ave 12178 max 8755 min
Histogram: 3 0 2 1 0 0 0 2 1 1

Total # of neighbors = 102294
Ave neighs/atom = 20.4588
Ave special neighs/atom = 7.4996
Neighbor list builds = 5030171
Dangerous builds = 0
System init for write_restart ...
Total wall time: 7:29:36
