LAMMPS (5 Jun 2019)
Reading restart file ...
  restart file = 5 Jun 2019, LAMMPS = 5 Jun 2019
WARNING: Restart file used different # of processors (../read_restart.cpp:740)
  restoring atom style full from restart
  orthogonal box = (-250 -250 -250) to (250 250 250)
  1 by 2 by 5 MPI processor grid
  restoring pair style lj/cut from restart
  restoring bond style harmonic from restart
  restoring angle style cosine from restart
  5000 atoms
  5295 bonds
  4600 angles
Finding 1-2 1-3 1-4 neighbors ...
  special bond factors lj:   1          1          1         
  special bond factors coul: 0          0          0         
  3 = max # of 1-2 neighbors
  4 = max # of 1-3 neighbors
  8 = max # of 1-4 neighbors
  16 = max # of special neighbors
  special bonds CPU = 0.00588151 secs
  read_restart CPU = 0.0869336 secs
1000 atoms in group rxnSites
Neighbor list info ...
  update every 1 steps, delay 1 steps, check yes
  max neighbors/atom: 2000, page size: 100000
  master list distance cutoff = 26.9
  ghost atom cutoff = 26.9
  binsize = 13.45, bins = 38 38 38
  2 neighbor lists, perpetual/occasional/extra = 1 1 0
  (1) pair lj/cut, perpetual
      attributes: half, newton on
      pair build: half/bin/newton
      stencil: half/bin/3d/newton
      bin: standard
  (2) fix bond/create/random, occasional, copy from (1)
      attributes: half, newton on
      pair build: copy
      stencil: none
      bin: none
Setting up Verlet run ...
  Unit style    : real
  Current step  : 300000000
  Time step     : 25
WARNING: Inconsistent image flags (../domain.cpp:784)
Per MPI rank memory allocation (min/avg/max) = 10.27 | 10.55 | 11.2 Mbytes
Step E_pair PotEng KinEng E_bond E_angle Temp Bonds 
300000000   -3871.1467    520.89237    4604.6364    1601.0349    2791.0041    309.01382     5295 
301000000   -3855.6132    590.02381    4612.6472     1556.371     2889.266    309.55142     5295 
302000000   -3777.6712    617.72493    4594.1409     1537.022    2858.3742    308.30948     5296 
303000000   -3883.6969    561.59779    4621.3985    1596.8058    2848.4889    310.13872     5297 
304000000   -3774.2375    715.37705    4637.5607    1556.5496    2933.0649    311.22334     5297 
305000000   -3893.6882    482.75997    4687.3697     1543.487    2832.9612      314.566     5296 
306000000   -3830.6058    596.66134    4626.1194    1559.0574    2868.2098    310.45553     5296 
307000000   -3893.4336    529.92488    4652.1135    1559.3653    2863.9932    312.19997     5296 
308000000    -3846.401    560.56722    4509.8625    1548.4186    2858.5496    302.65361     5296 
309000000   -3780.3421    576.17892    4586.1327      1546.74    2809.7811    307.77205     5296 
310000000   -3793.7151    633.41905    4615.0658    1585.7129    2841.4212    309.71373     5296 
311000000   -3833.0364    665.22841    4686.1778    1591.3694    2906.8954      314.486     5294 
312000000   -3858.9345    516.00814    4625.7545    1502.2953    2872.6473    310.43104     5294 
313000000   -3825.6104    621.89735    4598.9456    1544.2799    2903.2279    308.63192     5294 
314000000   -3770.8739    575.90366    4687.7983    1538.6123    2808.1654    314.59476     5294 
315000000   -3827.6131    516.34082    4525.0063    1510.3619     2833.592     303.6699     5294 
316000000   -3825.3355    641.44868    4606.1431    1598.8754    2867.9087    309.11494     5294 
317000000   -3921.0711    546.57903    4610.5273    1585.0561    2882.5941    309.40915     5294 
318000000   -3861.1866    521.45055    4657.6805    1546.5411    2836.0961    312.57357     5294 
319000000   -3914.8615    521.72384    4717.4842    1542.7873    2893.7981    316.58695     5294 
320000000   -3741.7401    683.04683    4601.9157     1540.742     2884.045    308.83124     5294 
321000000     -3875.82    550.11603    4737.9521    1591.6668    2834.2692    317.96054     5295 
322000000   -3834.1038    584.20843    4542.7853    1547.6256    2870.6866    304.86304     5295 
323000000   -3913.9351    591.41139     4665.797    1607.7171    2897.6294    313.11827     5295 
324000000    -3925.755    502.48826    4639.3882    1545.9206    2882.3227    311.34599     5295 
325000000    -3964.249    439.59444    4612.5053    1544.1599    2859.6835    309.54189     5295 
326000000   -3912.6115     489.6121    4641.7706    1492.9827    2909.2409    311.50587     5295 
327000000   -3863.4615    581.02331    4565.9282    1555.7226    2888.7622    306.41614     5295 
328000000     -3783.61    657.78359    4671.0167    1563.2865    2878.1071    313.46855     5295 
329000000   -3883.9769    562.29761    4645.4825    1617.2795     2828.995    311.75498     5295 
330000000   -3795.1565    677.88373    4646.2793     1564.562    2908.4782    311.80844     5295 
331000000   -3940.8001    505.82045    4590.9581    1572.7998    2873.8207    308.09588     5294 
332000000   -3888.4198    583.10027    4645.8682    1550.1372    2921.3829    311.78086     5294 
333000000   -3858.7351    516.88689    4600.4933    1573.7732    2801.8488    308.73578     5294 
334000000   -3824.6208    558.15927    4681.9845    1571.5255    2811.2546    314.20459     5293 
335000000   -3914.4432    500.39867    4619.7472    1560.1561    2854.6858     310.0279     5293 
336000000   -3866.3948    531.04701    4570.9787    1557.0524    2840.3894    306.75507     5293 
337000000   -3895.9203     540.9735    4588.7141    1549.5256    2887.3682    307.94529     5294 
338000000   -3842.8348      586.733    4574.3937    1545.9229    2883.6449    306.98425     5295 
339000000   -3909.5052    520.60367    4590.1803    1534.4353    2895.6735    308.04368     5295 
340000000   -3873.8406    579.11866    4713.4958    1586.4496    2866.5096     316.3193     5295 
341000000   -3843.4806    492.65548    4736.6829    1521.0427    2815.0934    317.87537     5293 
342000000   -3852.8739    590.81582    4566.3914    1541.6524    2902.0373    306.44723     5293 
343000000   -3864.0804    524.38048    4608.5693    1507.8031    2880.6578    309.27775     5294 
344000000   -3852.2624    586.01039    4627.6837    1578.1495    2860.1233    310.56051     5294 
345000000    -3901.105    486.21827    4622.1892    1549.3766    2837.9467    310.19177     5294 
346000000   -3854.7922    574.41348    4654.6898    1576.5185    2852.6872    312.37287     5294 
347000000   -3976.9666    468.33438    4634.8249    1577.1355    2868.1655    311.03975     5295 
348000000   -3897.0362    539.27446    4595.3589    1564.0452    2872.2654    308.39121     5295 
349000000   -3873.2977    501.60449    4602.5893    1501.3128    2873.5894    308.87644     5295 
350000000   -3911.0537    487.29064    4618.9348    1507.4285    2890.9159    309.97337     5294 
351000000   -3850.0514    639.15489     4594.151    1577.3511    2911.8552    308.31016     5294 
352000000   -3871.4146    561.56071     4638.711     1567.105    2865.8703    311.30054     5295 
353000000   -3862.3379    555.00187    4606.3016       1541.9    2875.4398    309.12557     5294 
354000000   -3913.4315     504.1734    4594.2855     1540.486     2877.119    308.31918     5293 
355000000   -3897.7155    473.25983    4672.1161    1526.3396    2844.6357    313.54233     5292 
356000000   -3847.4745    612.15539    4550.4877    1587.3118    2872.3181    305.37994     5294 
357000000   -3875.0592    577.40724    4540.5126    1555.8666    2896.5997    304.71052     5294 
358000000   -3882.1157    499.09939    4689.4432    1510.7005    2870.5147    314.70514     5292 
359000000   -3936.2219    473.35388    4630.4515    1545.8359    2863.7399    310.74625     5292 
360000000   -3824.3513    592.67698     4565.915    1628.0167    2789.0115    306.41526     5291 
361000000    -3831.729    571.63027    4575.9381    1571.9741    2831.3852     307.0879     5292 
362000000   -3849.7681    449.73791     4464.106    1556.5134    2742.9926    299.58292     5293 
363000000   -3889.9873    514.71083    4501.9424    1549.7252    2854.9729     302.1221     5293 
364000000    -3850.821    562.29524    4703.4467    1523.6599    2889.4563    315.64491     5294 
365000000   -3869.3887    557.77388    4581.6095    1508.7426    2918.4199     307.4685     5294 
366000000   -3875.1411    562.55926    4642.0602    1570.1689    2867.5315    311.52531     5294 
367000000   -3788.4058    592.56822    4534.7393    1565.8826    2815.0914    304.32308     5295 
368000000   -3810.7222    567.99548      4639.73     1541.418    2837.2996    311.36893     5294 
369000000   -3815.3469    532.95528    4618.6116    1544.7156    2803.5866    309.95169     5294 
370000000   -3893.2096    550.55994    4630.2392    1551.4538    2892.3157    310.73201     5295 
371000000    -3856.214      561.382    4616.1274    1525.4601    2892.1359    309.78497     5294 
372000000   -3848.6833    487.82049    4663.8719    1529.9285    2806.5753    312.98907     5293 
373000000   -3810.6887    632.97911    4643.5145     1586.724    2856.9438     311.6229     5293 
374000000   -3729.7015    616.14647    4694.5993    1513.8057    2832.0422    315.05116     5293 
375000000    -3788.257    651.97757     4648.736    1578.3131    2861.9215    311.97332     5293 
376000000   -3826.3131    513.91863     4611.483    1503.3385    2836.8933    309.47329     5293 
377000000   -3810.3121    619.18902    4566.7372    1542.6524    2886.8487    306.47043     5293 
378000000   -3936.5068    530.99099    4651.1971     1604.028    2863.4698    312.13848     5292 
379000000   -3926.5033    529.34669    4652.3846    1556.4988    2899.3512    312.21817     5292 
380000000   -3866.1515    579.05481    4548.7649    1573.8854    2871.3208    305.26432     5292 
381000000   -3906.0675    488.71884    4606.7438     1590.763    2804.0233    309.15525     5292 
382000000    -3874.772    565.70575    4592.0009      1565.11    2875.3678    308.16586     5293 
383000000   -3793.3502    714.48637    4591.0085    1584.6777    2923.1589    308.09926     5294 
384000000   -3954.0895    406.98938    4705.2393    1535.5025    2825.5764    315.76521     5294 
385000000   -3930.7341    556.25952    4561.0764    1627.3421    2859.6515    306.09054     5294 
386000000   -3848.6078    531.51904    4684.7543    1558.4853    2821.6415    314.39047     5295 
387000000   -3848.1984    558.13416    4653.1749    1572.8579    2833.4747    312.27121     5294 
388000000   -3892.3328    499.00121    4654.4456    1570.5646    2820.7695    312.35648     5294 
389000000    -3967.851    467.15105    4740.5495     1550.876    2884.1261    318.13485     5294 
390000000   -3906.3114    586.18905    4674.5871    1574.2779    2918.2225    313.70816     5294 
391000000   -3794.5939    667.10044    4681.0495    1576.6271    2885.0672    314.14185     5293 
392000000   -3869.3523    561.13451    4618.9711    1538.9466    2891.5402    309.97581     5295 
393000000   -3928.6361    487.16607    4580.3487    1546.7915    2869.0107    307.38389     5294 
394000000   -3863.0724     583.4499    4730.6182    1596.3427    2850.1797    317.46837     5293 
395000000   -3928.0047     540.1073    4619.3125    1618.5456    2849.5664    309.99872     5294 
396000000   -3884.9419    544.75128    4573.7832    1507.7676    2921.9257    306.94328     5295 
397000000   -3873.2401    559.36827    4623.9365    1579.5217    2853.0867    310.30903     5295 
398000000   -3857.1753    580.20044    4565.8743    1595.1554    2842.2203    306.41253     5295 
399000000   -3756.0612    674.68518    4565.0992    1587.2467    2843.4997    306.36051     5294 
400000000   -3722.8208    732.79947    4678.9531    1533.8706    2921.7497    314.00116     5294 
Loop time of 131760 on 10 procs for 100000000 steps with 5000 atoms

Performance: 1639.344 ns/day, 0.015 hours/ns, 758.956 timesteps/s
99.7% CPU use with 10 MPI tasks x no OpenMP threads

MPI task timing breakdown:
Section |  min time  |  avg time  |  max time  |%varavg| %total
---------------------------------------------------------------
Pair    | 9315.9     | 10520      | 11774      | 689.6 |  7.98
Bond    | 1586       | 1646.4     | 1915.1     | 231.6 |  1.25
Neigh   | 3607.8     | 3925.3     | 4230.7     | 419.8 |  2.98
Comm    | 27555      | 36975      | 47916      |4048.6 | 28.06
Output  | 0.78273    | 0.78287    | 0.78303    |   0.0 |  0.00
Modify  | 26841      | 26884      | 26932      |  20.0 | 20.40
Other   |            | 5.181e+04  |            |       | 39.32

Nlocal:    500 ave 530 max 452 min
Histogram: 1 0 0 0 1 3 1 2 1 1
Nghost:    728.7 ave 925 max 595 min
Histogram: 2 1 2 1 1 1 0 0 0 2
Neighs:    9878.4 ave 10990 max 8190 min
Histogram: 1 1 0 0 1 1 1 2 2 1

Total # of neighbors = 98784
Ave neighs/atom = 19.7568
Ave special neighs/atom = 7.4896
Neighbor list builds = 5030813
Dangerous builds = 0
System init for write_restart ...
Total wall time: 36:36:00
