LAMMPS data file via write_data, version 5 Jun 2019, timestep = 400000000

5000 atoms
4 atom types
5250 bonds
3 bond types
4600 angles
2 angle types

-2.5000000000000000e+02 2.5000000000000000e+02 xlo xhi
-2.5000000000000000e+02 2.5000000000000000e+02 ylo yhi
-2.5000000000000000e+02 2.5000000000000000e+02 zlo zhi

Masses

1 1000
2 1000
3 1000
4 1000

Pair Coeffs # lj/cut

1 0.3 10
2 0.3 10
3 0.3 10
4 0.3 10

Bond Coeffs # harmonic

1 3 10
2 3 10
3 1.8 11.22

Angle Coeffs # cosine

1 2
2 2

Atoms # full

3195 128 4 0.0000000000000000e+00 -5.1411412497222670e+01 3.3328402705726809e+01 -1.6360602573606525e+02 0 0 0
3196 128 4 0.0000000000000000e+00 -5.5314954005857075e+01 2.7487287492289081e+01 -1.5641085944299505e+02 0 0 0
4471 179 4 0.0000000000000000e+00 -9.5617043337467592e+01 -2.6268689420676381e+01 -1.4292116967093557e+02 0 0 0
4470 179 4 0.0000000000000000e+00 -8.7729994646087164e+01 -2.0565406958497249e+01 -1.4686508971930186e+02 0 0 0
1286 52 2 0.0000000000000000e+00 -9.6998397247968896e+01 -2.2863988539204820e+00 -1.4296730147658354e+02 0 0 0
4469 179 3 0.0000000000000000e+00 -8.0291761764004150e+01 -1.3384980087281715e+01 -1.4528921282318976e+02 0 0 0
526 22 1 0.0000000000000000e+00 -8.9588601621457343e+01 -6.9080146196397996e+00 -1.4891008433086799e+02 0 0 0
4468 179 4 0.0000000000000000e+00 -7.0708299020988633e+01 -9.3717989717396062e+00 -1.4342916223923925e+02 0 0 0
3513 141 3 0.0000000000000000e+00 -5.0188373507268139e+01 2.3160375559620152e+00 -1.4355446745548724e+02 0 0 0
3512 141 4 0.0000000000000000e+00 -4.0180868129396309e+01 2.4577256106002321e+00 -1.4620677570097575e+02 0 0 0
3198 128 4 0.0000000000000000e+00 -6.8753252535350740e+01 3.6471510906053190e+01 -1.4503693816982764e+02 0 0 0
3197 128 4 0.0000000000000000e+00 -6.1966685933320299e+01 3.1545280684394537e+01 -1.5005779171895767e+02 0 0 0
1514 61 2 0.0000000000000000e+00 -4.1123272786569331e+01 3.2307640849733048e+01 -1.4908620156878612e+02 0 0 0
4472 179 4 0.0000000000000000e+00 -1.0482718744652512e+02 -2.8651482025009400e+01 -1.3894820299805792e+02 0 0 0
1284 52 2 0.0000000000000000e+00 -1.0654060958859841e+02 -1.6132848305944250e+01 -1.3273711034853693e+02 0 0 0
4473 179 4 0.0000000000000000e+00 -1.0088429731441579e+02 -2.8007762657825833e+01 -1.2933135591112787e+02 0 0 0
2391 96 2 0.0000000000000000e+00 -3.7335358358846392e+01 -2.7291760263691259e+01 -1.3520370622404198e+02 0 0 0
2390 96 2 0.0000000000000000e+00 -4.4789728258698553e+01 -2.1126829274537808e+01 -1.3676096811325877e+02 0 0 0
1285 52 2 0.0000000000000000e+00 -1.0140554115639468e+02 -1.0480654642499140e+01 -1.3878832638216440e+02 0 0 0
528 22 2 0.0000000000000000e+00 -8.7568660262861343e+01 -1.3154999304486536e+01 -1.3244455116298303e+02 0 0 0
527 22 2 0.0000000000000000e+00 -8.4934976970512125e+01 -7.0681545778373698e+00 -1.3985719776741917e+02 0 0 0
4467 179 4 0.0000000000000000e+00 -6.1296739820481918e+01 -8.4249482453821312e+00 -1.3902169351557561e+02 0 0 0
4466 179 4 0.0000000000000000e+00 -5.6218932619728456e+01 -1.2229317368647866e+01 -1.3140316125162698e+02 0 0 0
2388 96 1 0.0000000000000000e+00 -4.7130935942650190e+01 -2.3936096894457117e+00 -1.3333668346868299e+02 0 0 0
2389 96 2 0.0000000000000000e+00 -4.6991766103616655e+01 -1.1220926639474420e+01 -1.3788322997737089e+02 0 0 0
1287 52 2 0.0000000000000000e+00 -9.3945455683273636e+01 7.3798137142642064e+00 -1.4151318549731923e+02 0 0 0
4062 163 4 0.0000000000000000e+00 -9.8953621177347060e+01 2.3438359171127008e+00 -1.3248451129563801e+02 0 0 0
4063 163 3 0.0000000000000000e+00 -9.0876403061218184e+01 8.5801526399481407e+00 -1.3177577082160974e+02 0 0 0
3515 141 4 0.0000000000000000e+00 -6.6374753834052285e+01 6.5101272211726036e+00 -1.3177364853411433e+02 0 0 0
3514 141 4 0.0000000000000000e+00 -5.7971557553364477e+01 4.0488082304433455e+00 -1.3702187764236658e+02 0 0 0
2387 96 2 0.0000000000000000e+00 -4.7576734456305381e+01 7.5746308459661842e+00 -1.3238704087985343e+02 0 0 0
1289 52 2 0.0000000000000000e+00 -9.4754829329904069e+01 2.0541358299247587e+01 -1.3139464925873816e+02 0 0 0
1288 52 1 0.0000000000000000e+00 -9.0978418748860989e+01 1.7057962057136550e+01 -1.3958171524240123e+02 0 0 0
2386 96 2 0.0000000000000000e+00 -4.5639280547164041e+01 1.7071182335073370e+01 -1.3155731271859128e+02 0 0 0
3519 141 3 0.0000000000000000e+00 -7.0103527367678680e+01 3.7081711479403964e+01 -1.2920100132695578e+02 0 0 0
1185 48 2 0.0000000000000000e+00 -5.2484728396343414e+01 3.0331683646851019e+01 -1.3282425238416226e+02 0 0 0
1186 48 2 0.0000000000000000e+00 -5.3306929207185085e+01 3.5002554328139354e+01 -1.4191053932130740e+02 0 0 0
1184 48 2 0.0000000000000000e+00 -4.3139502965579709e+01 2.8707751253435845e+01 -1.3520922207635866e+02 0 0 0
4523 181 4 0.0000000000000000e+00 -7.5111701862608783e+01 -3.4938895911021170e+01 -1.2001679599121728e+02 0 0 0
1283 52 2 0.0000000000000000e+00 -1.0762502503757960e+02 -2.1769967456598753e+01 -1.2447008082633542e+02 0 0 0
4474 179 4 0.0000000000000000e+00 -9.5574246299028829e+01 -2.2873230162083253e+01 -1.2343462217613545e+02 0 0 0
4522 181 4 0.0000000000000000e+00 -6.9793211387935344e+01 -2.8919448605029409e+01 -1.2612942530117978e+02 0 0 0
3051 123 3 0.0000000000000000e+00 -7.2550008933325643e+01 -2.5187337682303490e+01 -1.1640157125140422e+02 0 0 0
4521 181 4 0.0000000000000000e+00 -6.2988099757563006e+01 -2.2638321158540652e+01 -1.2111531093400521e+02 0 0 0
4464 179 4 0.0000000000000000e+00 -3.9607713943590959e+01 -1.6760246962970420e+01 -1.2666809543226212e+02 0 0 0
4465 179 4 0.0000000000000000e+00 -4.9097049619130431e+01 -1.5758836086680299e+01 -1.2451416370122541e+02 0 0 0
529 22 2 0.0000000000000000e+00 -9.3145753900050877e+01 -1.1204721670206562e+01 -1.2371310213937068e+02 0 0 0
4520 181 4 0.0000000000000000e+00 -6.1145325342877328e+01 -1.3384263124223214e+01 -1.1602649546996024e+02 0 0 0
1380 56 2 0.0000000000000000e+00 -3.9817291267104238e+01 -2.8633738542152680e+00 -1.1997192695933417e+02 0 0 0
4061 163 4 0.0000000000000000e+00 -1.0545179285861261e+02 3.3106042941024967e+00 -1.2524191268523116e+02 0 0 0
4060 163 4 0.0000000000000000e+00 -1.0166381765884118e+02 6.1046367673462516e+00 -1.1652372746318380e+02 0 0 0
3516 141 4 0.0000000000000000e+00 -7.1465511019018379e+01 1.0396981645938538e+01 -1.2392013985025498e+02 0 0 0
4064 163 4 0.0000000000000000e+00 -8.4401934906748437e+01 1.5909060609648952e+01 -1.2782965895257762e+02 0 0 0
1290 52 2 0.0000000000000000e+00 -9.2704107892865309e+01 1.7227272664331437e+01 -1.2218472861659899e+02 0 0 0
4065 163 4 0.0000000000000000e+00 -7.6595129342648676e+01 1.9055605704962165e+01 -1.2187751419258757e+02 0 0 0
3517 141 4 0.0000000000000000e+00 -6.5033860120525276e+01 1.8120677296083493e+01 -1.2597654012359368e+02 0 0 0
2009 81 2 0.0000000000000000e+00 -4.4652096032898605e+01 1.2309158062988663e+01 -1.2109435729730706e+02 0 0 0
2385 96 2 0.0000000000000000e+00 -4.4093286974032225e+01 2.4490018873975092e+01 -1.2414343067449322e+02 0 0 0
4889 196 4 0.0000000000000000e+00 -3.8202855841268089e+01 2.0712965823802051e+01 -1.1576243471161716e+02 0 0 0
737 30 2 0.0000000000000000e+00 -7.7782675135933971e+01 3.4701076602702884e+01 -1.2181776870379979e+02 0 0 0
3518 141 4 0.0000000000000000e+00 -6.6878559510754997e+01 2.7709857592560489e+01 -1.2712619455220805e+02 0 0 0
2065 83 2 0.0000000000000000e+00 -5.4353773372838781e+01 2.7477442785056414e+01 -1.1518850118286207e+02 0 0 0
2384 96 2 0.0000000000000000e+00 -4.3183763463598027e+01 3.4945116901065120e+01 -1.2287993463782308e+02 0 0 0
1280 52 2 0.0000000000000000e+00 -1.1278007366670974e+02 -3.6448633988963763e+01 -1.0325097393910936e+02 0 0 0
1281 52 2 0.0000000000000000e+00 -1.0861201650706697e+02 -3.2367188350218314e+01 -1.1130939313636028e+02 0 0 0
4524 181 4 0.0000000000000000e+00 -8.2576464144666431e+01 -3.0501441105523831e+01 -1.1473502396269565e+02 0 0 0
2000 80 1 0.0000000000000000e+00 -7.4936291118669104e+01 -3.3084138202744612e+01 -1.0900735194737153e+02 0 0 0
3054 123 4 0.0000000000000000e+00 -4.6947196580600853e+01 -3.2450590084944501e+01 -1.0714811955061879e+02 0 0 0
3055 123 4 0.0000000000000000e+00 -4.5016769373426683e+01 -4.2419952857274126e+01 -1.0244882918529004e+02 0 0 0
2395 96 2 0.0000000000000000e+00 -3.7972016156764894e+01 -3.5068603584559071e+01 -1.0256949074976028e+02 0 0 0
2800 112 3 0.0000000000000000e+00 -3.8542650216332284e+01 -3.0926151299501353e+01 -1.1409210786633049e+02 0 0 0
1282 52 1 0.0000000000000000e+00 -1.0529899448009205e+02 -2.3828821716707722e+01 -1.1457049707606993e+02 0 0 0
4475 179 3 0.0000000000000000e+00 -9.3874144160942947e+01 -2.3394308169144221e+01 -1.1328247657061645e+02 0 0 0
4525 181 3 0.0000000000000000e+00 -8.1220639968577416e+01 -2.2612896370015765e+01 -1.0848058254460068e+02 0 0 0
1999 80 2 0.0000000000000000e+00 -6.9061197304337114e+01 -2.9368866845803868e+01 -1.0196635116347845e+02 0 0 0
3052 123 4 0.0000000000000000e+00 -6.3739701093637890e+01 -2.4079262025085757e+01 -1.1082703627283726e+02 0 0 0
3053 123 4 0.0000000000000000e+00 -5.4529335268601379e+01 -2.6031812921551783e+01 -1.0791754071821566e+02 0 0 0
2071 83 2 0.0000000000000000e+00 -4.7832136867754919e+01 -1.8928524553555992e+01 -1.0177799296337115e+02 0 0 0
2799 112 4 0.0000000000000000e+00 -3.9335006254442071e+01 -2.5379446069324828e+01 -1.0585570016319696e+02 0 0 0
530 22 2 0.0000000000000000e+00 -9.6059701578789301e+01 -8.2122763531291572e+00 -1.1466411036936253e+02 0 0 0
531 22 2 0.0000000000000000e+00 -1.0306635601201560e+02 -1.0486703589138143e+01 -1.0720516963632315e+02 0 0 0
1536 62 2 0.0000000000000000e+00 -9.2185952402635976e+01 -1.2256354549873608e+01 -1.0394598672630397e+02 0 0 0
1537 62 2 0.0000000000000000e+00 -9.0773824205693359e+01 -3.1915910256174915e+00 -1.0799816816239635e+02 0 0 0
2069 83 1 0.0000000000000000e+00 -5.3351154603449650e+01 -2.6383646036440038e+00 -1.0855398538685657e+02 0 0 0
4519 181 3 0.0000000000000000e+00 -6.1038200878287185e+01 -1.1099065214624545e+01 -1.0627255404016378e+02 0 0 0
2070 83 2 0.0000000000000000e+00 -4.9590148664001468e+01 -1.2409537831464233e+01 -1.0916420484969734e+02 0 0 0
1217 49 2 0.0000000000000000e+00 -4.1835471575315204e+01 -6.5696406206959832e+00 -1.0226492127674673e+02 0 0 0
4059 163 4 0.0000000000000000e+00 -1.0206471971017316e+02 6.6749708162612553e-01 -1.0808334449151529e+02 0 0 0
1538 62 1 0.0000000000000000e+00 -8.9500815576607124e+01 6.0252643403904784e+00 -1.0454864159058526e+02 0 0 0
2068 83 2 0.0000000000000000e+00 -5.6912740641941824e+01 5.4404931232386531e+00 -1.1275223378498616e+02 0 0 0
2007 81 1 0.0000000000000000e+00 -5.2875586470935055e+01 7.8111321071904154e+00 -1.0374121926366657e+02 0 0 0
2008 81 2 0.0000000000000000e+00 -4.6149617684537020e+01 1.0031298394138705e+01 -1.1155448028336639e+02 0 0 0
1379 56 2 0.0000000000000000e+00 -3.6591810136056324e+01 6.2604850577004073e-02 -1.1068606818140248e+02 0 0 0
1292 52 2 0.0000000000000000e+00 -9.3977467451867312e+01 1.9141739144050163e+01 -1.0350913747033572e+02 0 0 0
1291 52 2 0.0000000000000000e+00 -9.4551858338661418e+01 1.5313102960724747e+01 -1.1254084518702066e+02 0 0 0
2907 117 3 0.0000000000000000e+00 -8.1461015557981696e+01 1.2923354807151677e+01 -1.0245058844715948e+02 0 0 0
2908 117 4 0.0000000000000000e+00 -8.4487695988470790e+01 1.7217797661873931e+01 -1.1096636628695128e+02 0 0 0
4066 163 4 0.0000000000000000e+00 -7.2663195448993903e+01 2.0663345479847706e+01 -1.1280810420166009e+02 0 0 0
4067 163 4 0.0000000000000000e+00 -7.0842311666182127e+01 1.8850479642137699e+01 -1.0301650140760547e+02 0 0 0
2066 83 2 0.0000000000000000e+00 -6.3483074838950408e+01 2.4397514199921705e+01 -1.1369490100282110e+02 0 0 0
2067 83 2 0.0000000000000000e+00 -6.1894108266242696e+01 1.4458092068973734e+01 -1.1297143071860958e+02 0 0 0
2901 117 3 0.0000000000000000e+00 -5.2899578191564572e+01 1.6889464318064228e+01 -1.0969328021545579e+02 0 0 0
4890 196 4 0.0000000000000000e+00 -3.6615486581649016e+01 1.3481323511333875e+01 -1.0817396225656992e+02 0 0 0
734 30 2 0.0000000000000000e+00 -9.4302672500755833e+01 3.9157986078116899e+01 -1.1325040542786148e+02 0 0 0
2909 117 4 0.0000000000000000e+00 -8.5951668779559967e+01 2.6925032897289800e+01 -1.1235025887088068e+02 0 0 0
2910 117 4 0.0000000000000000e+00 -8.4304684436817226e+01 3.6822918572440528e+01 -1.1352291659189420e+02 0 0 0
4500 180 3 0.0000000000000000e+00 -8.9108069837014682e+01 3.3360819275897292e+01 -1.0546169618370266e+02 0 0 0
739 30 2 0.0000000000000000e+00 -6.5903912700459585e+01 3.5424682752979294e+01 -1.1011128040035186e+02 0 0 0
2917 117 4 0.0000000000000000e+00 -5.3175861511945058e+01 3.7427874438184809e+01 -1.1033663526384225e+02 0 0 0
2063 83 1 0.0000000000000000e+00 -3.6767348367370531e+01 3.0093667081060197e+01 -1.0798046003157157e+02 0 0 0
2064 83 2 0.0000000000000000e+00 -4.6396535825758519e+01 2.7235180418994332e+01 -1.0821211529341983e+02 0 0 0
2383 96 2 0.0000000000000000e+00 -4.1248499496989780e+01 3.7223028165365989e+01 -1.1353351728031420e+02 0 0 0
2918 117 4 0.0000000000000000e+00 -5.0302110189017228e+01 3.4370606706516583e+01 -1.0193209849098616e+02 0 0 0
268 11 2 0.0000000000000000e+00 -4.6592297047700129e+01 -4.5663126815070150e+01 -9.1320558606897322e+01 0 0 0
3056 123 4 0.0000000000000000e+00 -3.6536153400458907e+01 -4.5734544736946148e+01 -9.9466882601991827e+01 0 0 0
1279 52 2 0.0000000000000000e+00 -1.1507531098147203e+02 -3.7691993456331545e+01 -9.3566768572618827e+01 0 0 0
261 11 2 0.0000000000000000e+00 -9.5107016103355903e+01 -3.0181430211446241e+01 -9.1691942074651166e+01 0 0 0
262 11 2 0.0000000000000000e+00 -8.8090686315209155e+01 -3.1097694287258872e+01 -9.9592635224491602e+01 0 0 0
265 11 2 0.0000000000000000e+00 -6.4895166545956968e+01 -2.9870343846440850e+01 -8.8608312345160201e+01 0 0 0
2396 96 2 0.0000000000000000e+00 -4.5973662266377595e+01 -3.3195996567661474e+01 -9.6123259956912904e+01 0 0 0
275 11 1 0.0000000000000000e+00 -3.7278242114347847e+01 -4.0440322851570528e+01 -9.0631192332877418e+01 0 0 0
4056 163 4 0.0000000000000000e+00 -9.6525030884554198e+01 -2.0129908643548628e+01 -9.0657041179679567e+01 0 0 0
1535 62 2 0.0000000000000000e+00 -8.6189103235909727e+01 -1.6493532578366715e+01 -9.7542136853539446e+01 0 0 0
263 11 1 0.0000000000000000e+00 -7.8861274510444545e+01 -2.6424699025774139e+01 -9.8162273767068726e+01 0 0 0
264 11 2 0.0000000000000000e+00 -7.1292264166528057e+01 -2.2674533100331537e+01 -9.1964057229573399e+01 0 0 0
1998 80 2 0.0000000000000000e+00 -6.2131812167743028e+01 -2.1925522223299502e+01 -9.8018480641378105e+01 0 0 0
2397 96 2 0.0000000000000000e+00 -5.3604893122488228e+01 -2.8206933013477890e+01 -9.1978458008459029e+01 0 0 0
2072 83 2 0.0000000000000000e+00 -4.6947432067582703e+01 -1.9128220816312911e+01 -9.1713337401951392e+01 0 0 0
533 22 2 0.0000000000000000e+00 -1.0938575807301879e+02 -5.6418567829251760e+00 -8.9350661212055059e+01 0 0 0
532 22 1 0.0000000000000000e+00 -1.0582516916849008e+02 -1.0817171441994333e+01 -9.7365986439490740e+01 0 0 0
4057 163 3 0.0000000000000000e+00 -9.4610804591182244e+01 -1.0607102550772138e+01 -9.3701788910204414e+01 0 0 0
4058 163 4 0.0000000000000000e+00 -9.8028180504379321e+01 -3.5747639236609232e+00 -1.0023494526084788e+02 0 0 0
4516 181 4 0.0000000000000000e+00 -8.5874260699073872e+01 -3.6871186189250889e+00 -9.6238110881770396e+01 0 0 0
4518 181 4 0.0000000000000000e+00 -6.8245565556022143e+01 -1.0799356763562724e+01 -9.9379035309925314e+01 0 0 0
4517 181 4 0.0000000000000000e+00 -7.7054188360165739e+01 -6.6569572565374937e+00 -1.0027241689405164e+02 0 0 0
4990 200 4 0.0000000000000000e+00 -7.5226657538003167e+01 -1.2796748669574072e+01 -9.2243372140119519e+01 0 0 0
1997 80 2 0.0000000000000000e+00 -5.5065739787177215e+01 -1.3935216605734498e+01 -9.7629504686754188e+01 0 0 0
1996 80 2 0.0000000000000000e+00 -5.7394110706922412e+01 -6.1399473223144581e+00 -9.1064208725133241e+01 0 0 0
4514 181 4 0.0000000000000000e+00 -1.0229610985433405e+02 4.4700216063641696e+00 -9.2757965444824904e+01 0 0 0
4515 181 4 0.0000000000000000e+00 -9.3636263285066434e+01 6.0172363924437644e-01 -9.1097515224052827e+01 0 0 0
1539 62 2 0.0000000000000000e+00 -8.6267372770053285e+01 7.2334659570447348e+00 -9.4719941834728274e+01 0 0 0
1540 62 2 0.0000000000000000e+00 -8.0980608297168530e+01 7.8253825965179080e-01 -8.9787956535337145e+01 0 0 0
2005 81 2 0.0000000000000000e+00 -7.1226959976827843e+01 9.2781630598182581e+00 -9.5026201572488347e+01 0 0 0
2006 81 2 0.0000000000000000e+00 -6.2822889555354827e+01 8.4949761777789945e+00 -1.0109141659708752e+02 0 0 0
1216 49 2 0.0000000000000000e+00 -4.7870391313186516e+01 1.3113097282988997e-01 -9.7864035192701891e+01 0 0 0
1215 49 2 0.0000000000000000e+00 -4.7380228150525276e+01 5.5662654675340688e+00 -8.9209549751005568e+01 0 0 0
4513 181 3 0.0000000000000000e+00 -1.0419923797503243e+02 1.4679996297536576e+01 -9.1148139536727484e+01 0 0 0
2906 117 4 0.0000000000000000e+00 -7.8608354265683815e+01 1.6062777631076532e+01 -9.3127508211472630e+01 0 0 0
2905 117 4 0.0000000000000000e+00 -7.0329228110060484e+01 2.0175648214627437e+01 -8.9304033275506015e+01 0 0 0
2902 117 4 0.0000000000000000e+00 -5.1449301971266102e+01 2.0398979079564391e+01 -1.0010563265926280e+02 0 0 0
4068 163 4 0.0000000000000000e+00 -6.2266549256445757e+01 1.9542794711813588e+01 -9.6978588700369812e+01 0 0 0
4069 163 3 0.0000000000000000e+00 -5.6982517907328379e+01 1.5691084595087057e+01 -8.9331621434080063e+01 0 0 0
4891 196 4 0.0000000000000000e+00 -3.9040836123929466e+01 1.8144252616271267e+01 -9.9312860491887321e+01 0 0 0
4892 196 4 0.0000000000000000e+00 -4.1762861643574404e+01 1.4359500676022556e+01 -8.9969878540410207e+01 0 0 0
1293 52 2 0.0000000000000000e+00 -9.3952899781067458e+01 2.7405691410740989e+01 -9.8150672712675970e+01 0 0 0
1294 52 1 0.0000000000000000e+00 -9.2283468038960507e+01 3.7085971427487173e+01 -9.5693288602183230e+01 0 0 0
3922 157 4 0.0000000000000000e+00 -8.2077373902046290e+01 2.9378398107688461e+01 -8.8915806973842905e+01 0 0 0
3923 157 4 0.0000000000000000e+00 -7.8509618485627954e+01 3.7971364593602274e+01 -9.2740238744630801e+01 0 0 0
2904 117 4 0.0000000000000000e+00 -6.5565507198901102e+01 2.8315694935839421e+01 -9.2967339715399376e+01 0 0 0
740 30 2 0.0000000000000000e+00 -6.2700659212753578e+01 3.6254107160318952e+01 -9.9986938641973211e+01 0 0 0
2903 117 4 0.0000000000000000e+00 -5.6494900142643175e+01 2.8475380384842882e+01 -9.7099955815328016e+01 0 0 0
2919 117 3 0.0000000000000000e+00 -4.2322769435412958e+01 3.0439624461334908e+01 -9.8285981781870532e+01 0 0 0
1526 62 1 0.0000000000000000e+00 -4.3249598693395491e+01 -7.3632974880520791e+01 -8.2862007179962077e+01 0 0 0
1276 52 1 0.0000000000000000e+00 -1.1811151473876676e+02 -6.2373366073880483e+01 -7.6300465768700022e+01 0 0 0
254 11 2 0.0000000000000000e+00 -5.5944295322930799e+01 -5.7222048816351972e+01 -7.4988734873254117e+01 0 0 0
1527 62 2 0.0000000000000000e+00 -4.2278073125652767e+01 -6.3735481431731081e+01 -8.3792218703799847e+01 0 0 0
1278 52 2 0.0000000000000000e+00 -1.1449869157857225e+02 -4.5699214676493185e+01 -8.7113285195947014e+01 0 0 0
1277 52 2 0.0000000000000000e+00 -1.1785875696613805e+02 -5.2990647120581968e+01 -8.0558458339504043e+01 0 0 0
259 11 2 0.0000000000000000e+00 -9.3967458723960306e+01 -4.3818429633161053e+01 -8.6043494117357767e+01 0 0 0
258 11 2 0.0000000000000000e+00 -9.4072552248490908e+01 -5.3162526330663823e+01 -8.2986610326923355e+01 0 0 0
257 11 1 0.0000000000000000e+00 -8.6235050054977393e+01 -5.6855782236618737e+01 -7.7638543867525684e+01 0 0 0
255 11 2 0.0000000000000000e+00 -6.6407555293093097e+01 -5.6195972655142384e+01 -7.5150711618223426e+01 0 0 0
1529 62 2 0.0000000000000000e+00 -5.4391719009801726e+01 -4.7884629425258140e+01 -8.0565898687063964e+01 0 0 0
269 11 1 0.0000000000000000e+00 -3.8256170950325810e+01 -5.0308169798375069e+01 -8.7994271640353901e+01 0 0 0
1528 62 2 0.0000000000000000e+00 -4.7001259545551683e+01 -5.5116722923897107e+01 -8.0602496619545008e+01 0 0 0
260 11 2 0.0000000000000000e+00 -1.0026691483671958e+02 -3.6218874878977303e+01 -8.5915287247421034e+01 0 0 0
4054 163 4 0.0000000000000000e+00 -1.0043455870631485e+02 -3.0020580969813128e+01 -7.8486731808611026e+01 0 0 0
3168 127 4 0.0000000000000000e+00 -8.5922852380445732e+01 -3.2388386887469849e+01 -7.8769895887681301e+01 0 0 0
3167 127 4 0.0000000000000000e+00 -7.8493145550882588e+01 -3.8426138349208010e+01 -7.5580170969556761e+01 0 0 0
266 11 2 0.0000000000000000e+00 -5.6813146310776652e+01 -3.4128359630082763e+01 -8.4841970162360212e+01 0 0 0
1530 62 2 0.0000000000000000e+00 -6.0652991222947207e+01 -4.2474077620163150e+01 -7.4592213953795252e+01 0 0 0
267 11 2 0.0000000000000000e+00 -4.7744462654303014e+01 -3.6825720312360382e+01 -8.6602015498199592e+01 0 0 0
4688 188 3 0.0000000000000000e+00 -4.7650415293049257e+01 -3.0469287721707630e+01 -7.6496799517117609e+01 0 0 0
4687 188 4 0.0000000000000000e+00 -3.9510651377091271e+01 -3.6057316001814236e+01 -7.6776786734348818e+01 0 0 0
4055 163 4 0.0000000000000000e+00 -9.9780244579780941e+01 -2.0401313664449646e+01 -8.0777265494635117e+01 0 0 0
1534 62 2 0.0000000000000000e+00 -8.3343126389122702e+01 -1.7573075983791988e+01 -8.7795115807493147e+01 0 0 0
3169 127 3 0.0000000000000000e+00 -8.7486942265853074e+01 -2.2646875021892409e+01 -7.8048511078475542e+01 0 0 0
1533 62 2 0.0000000000000000e+00 -7.8398852012619230e+01 -1.9726814322004174e+01 -7.9117059102058377e+01 0 0 0
4989 200 4 0.0000000000000000e+00 -6.9700953377614979e+01 -1.6695287966889012e+01 -8.4694731057881810e+01 0 0 0
2398 96 2 0.0000000000000000e+00 -5.6752833158567860e+01 -2.3599628750618887e+01 -8.3413618801803239e+01 0 0 0
2399 96 2 0.0000000000000000e+00 -5.7894682689620126e+01 -1.6590756727121825e+01 -7.6528364153505009e+01 0 0 0
2073 83 2 0.0000000000000000e+00 -4.4778261102701968e+01 -1.9246482207302460e+01 -8.2067876705142552e+01 0 0 0
2074 83 2 0.0000000000000000e+00 -3.7984197606067681e+01 -2.2394242200344738e+01 -7.4987917738490324e+01 0 0 0
540 22 2 0.0000000000000000e+00 -1.3459918484496566e+02 -5.5687452993248900e+00 -7.7216689496665325e+01 0 0 0
3171 127 4 0.0000000000000000e+00 -1.0249405066711883e+02 -1.0314893044186118e+01 -7.7430176975056796e+01 0 0 0
3170 127 4 0.0000000000000000e+00 -9.2215715664652421e+01 -1.3629019217136941e+01 -7.7695711347970160e+01 0 0 0
1541 62 2 0.0000000000000000e+00 -8.4587902471922774e+01 -7.2053456503436744e+00 -8.5682140597871779e+01 0 0 0
1542 62 2 0.0000000000000000e+00 -8.1162324045948850e+01 -7.3946973304059416e+00 -7.6061043337042378e+01 0 0 0
4988 200 3 0.0000000000000000e+00 -6.7754254056492712e+01 -1.5132922781670294e+01 -7.5496494527408629e+01 0 0 0
4991 200 4 0.0000000000000000e+00 -7.0794653729930943e+01 -5.3887041224658612e+00 -8.6509616719076902e+01 0 0 0
4992 200 4 0.0000000000000000e+00 -6.4816867729056980e+01 -2.5613939930088043e+00 -7.8698164899480574e+01 0 0 0
1995 80 2 0.0000000000000000e+00 -5.1651569030130361e+01 -9.2506191228013890e+00 -8.2859187976608894e+01 0 0 0
1994 80 1 0.0000000000000000e+00 -4.3645737852969063e+01 -3.2137799517137626e+00 -8.0385285869327333e+01 0 0 0
541 22 2 0.0000000000000000e+00 -1.2976190091685172e+02 -7.3304058927438431e-01 -8.4433769666657170e+01 0 0 0
542 22 2 0.0000000000000000e+00 -1.2377659400394408e+02 7.6646317291505124e+00 -8.4077675162635231e+01 0 0 0
534 22 2 0.0000000000000000e+00 -1.1471088830925945e+02 5.2620114625189274e-01 -8.3152048199987377e+01 0 0 0
535 22 2 0.0000000000000000e+00 -1.1595997834436237e+02 7.1164342460655696e+00 -7.5714472461424108e+01 0 0 0
2001 81 1 0.0000000000000000e+00 -9.6939116034271791e+01 2.2276317231257545e+00 -7.5309760615847921e+01 0 0 0
2003 81 2 0.0000000000000000e+00 -8.0023913348542976e+01 3.1927596250899501e+00 -7.8218467331577216e+01 0 0 0
2004 81 2 0.0000000000000000e+00 -7.6801088493502462e+01 8.3955186261638701e+00 -8.6227856851498061e+01 0 0 0
949 38 2 0.0000000000000000e+00 -6.7266321712382364e+01 8.4272930383845477e+00 -8.4594066320016282e+01 0 0 0
950 38 1 0.0000000000000000e+00 -5.8748477505690438e+01 4.2000070187040439e+00 -8.7933334821299212e+01 0 0 0
4993 200 4 0.0000000000000000e+00 -5.5024182060596466e+01 -2.5971837571849327e-01 -7.5956248297148875e+01 0 0 0
1214 49 2 0.0000000000000000e+00 -5.1029002104322863e+01 8.4306486227519191e+00 -8.0681964790739784e+01 0 0 0
543 22 2 0.0000000000000000e+00 -1.1490301251549458e+02 1.2452609171891217e+01 -8.7877124957215145e+01 0 0 0
544 22 1 0.0000000000000000e+00 -1.0943036518018700e+02 2.0381248001507185e+01 -8.3075597910695393e+01 0 0 0
4512 181 4 0.0000000000000000e+00 -1.0060307133576957e+02 2.3090975567251455e+01 -8.7080504538529851e+01 0 0 0
545 22 2 0.0000000000000000e+00 -1.0535972775065702e+02 2.5190455643950187e+01 -7.5060340107907365e+01 0 0 0
3921 157 4 0.0000000000000000e+00 -8.6915454817110657e+01 2.0716390064399903e+01 -8.6149345331685268e+01 0 0 0
3920 157 4 0.0000000000000000e+00 -9.0678719621718031e+01 1.3640570740935479e+01 -8.0118487230853958e+01 0 0 0
3839 154 4 0.0000000000000000e+00 -8.3377938604864397e+01 2.1196011300842329e+01 -7.5242531090178034e+01 0 0 0
948 38 2 0.0000000000000000e+00 -7.1148488014502732e+01 1.6680141706507026e+01 -7.9334813346267993e+01 0 0 0
3840 154 4 0.0000000000000000e+00 -7.4911718418680294e+01 2.5262456518787005e+01 -7.8855882221388853e+01 0 0 0
4070 163 4 0.0000000000000000e+00 -5.9037660851937609e+01 1.8724068014041915e+01 -8.0456102463229342e+01 0 0 0
1725 69 1 0.0000000000000000e+00 -4.9751329872428911e+01 2.3710264186205784e+01 -8.1976207366310874e+01 0 0 0
4893 196 4 0.0000000000000000e+00 -4.1504599969095345e+01 1.8237582891027706e+01 -8.0853735091606282e+01 0 0 0
4511 181 4 0.0000000000000000e+00 -1.0074702335335165e+02 3.2585662188065591e+01 -8.2740144813692311e+01 0 0 0
4510 181 4 0.0000000000000000e+00 -9.2939438397417334e+01 3.7340783035336770e+01 -7.8266839725239009e+01 0 0 0
3841 154 4 0.0000000000000000e+00 -7.2073229484472989e+01 3.0755194036581070e+01 -8.6388947032716928e+01 0 0 0
4729 190 4 0.0000000000000000e+00 -7.2734848656264148e+01 3.7348305489338934e+01 -7.6885798373538478e+01 0 0 0
1723 69 2 0.0000000000000000e+00 -5.9684944694576785e+01 3.8713829158011940e+01 -8.2468518008830145e+01 0 0 0
4071 163 4 0.0000000000000000e+00 -6.1943977360598453e+01 2.7803992755037534e+01 -7.6995063966786873e+01 0 0 0
1724 69 2 0.0000000000000000e+00 -5.6037571487405188e+01 3.0466791286767211e+01 -8.6643191273467508e+01 0 0 0
4847 194 4 0.0000000000000000e+00 -7.5865964441483897e+01 -1.1611957091886354e+02 -6.5913425555502016e+01 0 0 0
4848 194 4 0.0000000000000000e+00 -8.3437026710749478e+01 -1.1072426407636772e+02 -6.1152978049379051e+01 0 0 0
4849 194 4 0.0000000000000000e+00 -8.4043542515321079e+01 -1.0084107691812180e+02 -6.1059941361766796e+01 0 0 0
4850 194 3 0.0000000000000000e+00 -8.8313162176439491e+01 -9.2253702486897609e+01 -6.3830209530200513e+01 0 0 0
4681 188 4 0.0000000000000000e+00 -4.1128127988814398e+01 -8.1106382583670253e+01 -6.7833446831378424e+01 0 0 0
3163 127 3 0.0000000000000000e+00 -9.5911711411306243e+01 -5.7446616884754455e+01 -7.2401711558675572e+01 0 0 0
3164 127 4 0.0000000000000000e+00 -8.7391162740088404e+01 -6.1459978176464567e+01 -6.7946826451370455e+01 0 0 0
253 11 2 0.0000000000000000e+00 -4.8867811809274848e+01 -5.8834123151871474e+01 -6.7743220047752047e+01 0 0 0
4684 188 4 0.0000000000000000e+00 -3.9796633858374470e+01 -6.0267556296381635e+01 -7.1849017584164699e+01 0 0 0
4683 188 4 0.0000000000000000e+00 -4.3909657864963030e+01 -6.9180206766612031e+01 -7.3369528392878777e+01 0 0 0
3162 127 4 0.0000000000000000e+00 -1.0112785085403411e+02 -4.8851689077597072e+01 -6.9450319464127645e+01 0 0 0
3165 127 4 0.0000000000000000e+00 -8.0999046856327979e+01 -5.4823411099804659e+01 -6.4783072599884235e+01 0 0 0
3166 127 4 0.0000000000000000e+00 -8.0308443431743939e+01 -4.7251677706781884e+01 -7.0996594265287612e+01 0 0 0
256 11 2 0.0000000000000000e+00 -7.6363884221756194e+01 -5.5487561178089763e+01 -7.4045798533085829e+01 0 0 0
252 11 2 0.0000000000000000e+00 -4.9904128751676843e+01 -4.9324179107570359e+01 -6.9815827639412987e+01 0 0 0
4838 194 3 0.0000000000000000e+00 -4.2973306901101900e+01 -4.8606903824965137e+01 -6.2532483680361189e+01 0 0 0
3161 127 4 0.0000000000000000e+00 -9.9814597513474865e+01 -4.0863391070276876e+01 -6.3531962100324442e+01 0 0 0
4053 163 4 0.0000000000000000e+00 -9.4085514429522092e+01 -3.5443525362923296e+01 -7.2521534578825822e+01 0 0 0
4052 163 4 0.0000000000000000e+00 -8.8785844846971258e+01 -4.0009161549798918e+01 -6.5523145153039380e+01 0 0 0
1531 62 2 0.0000000000000000e+00 -6.2891072855837137e+01 -3.2128658787261934e+01 -7.4510558380925488e+01 0 0 0
251 11 1 0.0000000000000000e+00 -5.1393804068736500e+01 -3.9769822757652896e+01 -7.1594755819426652e+01 0 0 0
4837 194 4 0.0000000000000000e+00 -4.0457480981675879e+01 -3.9462966974711847e+01 -6.6437587223490226e+01 0 0 0
1547 62 2 0.0000000000000000e+00 -1.1189440861489599e+02 -2.0321294867317686e+01 -6.2076135746227521e+01 0 0 0
1546 62 2 0.0000000000000000e+00 -1.0715694131590274e+02 -2.8478550374776187e+01 -6.6191186031773469e+01 0 0 0
1545 62 2 0.0000000000000000e+00 -9.7778433021195838e+01 -2.5525414875904985e+01 -6.7690949610398832e+01 0 0 0
1544 62 1 0.0000000000000000e+00 -9.0725499178492285e+01 -1.8377700858560832e+01 -6.8394108326338539e+01 0 0 0
1532 62 1 0.0000000000000000e+00 -7.0980146620760536e+01 -2.4991558087315500e+01 -7.4049973893124800e+01 0 0 0
4690 188 4 0.0000000000000000e+00 -5.2073269507423262e+01 -1.7023928317852992e+01 -6.4181170242492797e+01 0 0 0
4689 188 4 0.0000000000000000e+00 -5.1960267854909581e+01 -2.4391587813796011e+01 -7.0074482222537128e+01 0 0 0
2075 83 1 0.0000000000000000e+00 -4.3241016115133952e+01 -2.6835668078787887e+01 -6.7731344976726206e+01 0 0 0
539 22 2 0.0000000000000000e+00 -1.3892732260561675e+02 -3.7685599289248333e+00 -6.8815410593174533e+01 0 0 0
354 15 2 0.0000000000000000e+00 -9.3653341802325556e+01 -1.1828819107941944e+01 -6.1120553210357464e+01 0 0 0