LAMMPS data file via write_data, version 5 Jun 2019, timestep = 300000000

5000 atoms
4 atom types
5251 bonds
3 bond types
4600 angles
2 angle types

-2.5000000000000000e+02 2.5000000000000000e+02 xlo xhi
-2.5000000000000000e+02 2.5000000000000000e+02 ylo yhi
-2.5000000000000000e+02 2.5000000000000000e+02 zlo zhi

Masses

1 1000
2 1000
3 1000
4 1000

Pair Coeffs # lj/cut

1 0.3 10
2 0.3 10
3 0.3 10
4 0.3 10

Bond Coeffs # harmonic

1 3 10
2 3 10
3 1.8 11.22

Angle Coeffs # cosine

1 2
2 2

Atoms # full

2250 90 1 0.0000000000000000e+00 -7.0915908442226140e+01 8.2045021456792355e+00 -1.6849822685509346e+02 0 0 0
2270 91 2 0.0000000000000000e+00 -1.8030415915145202e+01 4.6075750440900896e+00 -1.7246077715541600e+02 0 0 0
2271 91 2 0.0000000000000000e+00 -1.8774078680015698e+01 1.3161189444336747e+01 -1.7720037939612831e+02 0 0 0
3175 127 3 0.0000000000000000e+00 -7.4696445426325170e+01 -1.8067228408341722e+00 -1.6461935567257049e+02 0 0 0
3174 127 4 0.0000000000000000e+00 -6.9566792182784894e+01 -2.2237725666746977e+00 -1.5592401091069124e+02 0 0 0
4476 180 3 0.0000000000000000e+00 -5.0101336400236995e+01 -3.3529078157862209e+00 -1.5538804617721320e+02 0 0 0
3450 138 3 0.0000000000000000e+00 -1.9185786581322159e+01 1.5745505936756207e-01 -1.5818204528117963e+02 0 0 0
2268 91 2 0.0000000000000000e+00 -8.3875122678902709e+00 -1.7445959387529372e-01 -1.5622261173246284e+02 0 0 0
2249 90 2 0.0000000000000000e+00 -6.3679546906531741e+01 1.4764439683296629e+01 -1.6651722080206088e+02 0 0 0
1177 48 2 0.0000000000000000e+00 -3.8830558809680035e+01 8.8654985708678034e+00 -1.6061128580231656e+02 0 0 0
1176 48 1 0.0000000000000000e+00 -2.9509146559270729e+01 7.8969124376968711e+00 -1.5617463017918573e+02 0 0 0
3449 138 4 0.0000000000000000e+00 -2.1676750740637896e+01 8.8991873136809598e+00 -1.6285943237889740e+02 0 0 0
2269 91 1 0.0000000000000000e+00 -1.1457491101320713e+01 2.5259409746771215e+00 -1.6525002593627718e+02 0 0 0
3448 138 4 0.0000000000000000e+00 -1.4561191034331159e+01 1.5123548533620385e+01 -1.5837343608325850e+02 0 0 0
1150 46 1 0.0000000000000000e+00 -4.2608461255820551e+01 -4.2292738484825790e+01 -1.4173618082975568e+02 0 0 0
4459 179 4 0.0000000000000000e+00 -5.8818588990808387e+01 -3.6990722628160022e+01 -1.4383014100105544e+02 0 0 0
4460 179 4 0.0000000000000000e+00 -5.0282530044431844e+01 -3.0731163800358182e+01 -1.4321657892134223e+02 0 0 0
4478 180 4 0.0000000000000000e+00 -5.9931301157278995e+01 -7.1513958688907380e+00 -1.4269904240780110e+02 0 0 0
4477 180 4 0.0000000000000000e+00 -5.7834659714761877e+01 -9.4343493892006052e+00 -1.5189637964276403e+02 0 0 0
2238 90 1 0.0000000000000000e+00 -5.1199349679586369e+01 2.1083376887800473e+00 -1.4579557408053580e+02 0 0 0
2239 90 2 0.0000000000000000e+00 -4.1314295056290298e+01 9.8833904714448972e-02 -1.4806293320942441e+02 0 0 0
2240 90 2 0.0000000000000000e+00 -3.3727749526466894e+01 -6.4056039963039746e+00 -1.4764002000793053e+02 0 0 0
2241 90 2 0.0000000000000000e+00 -2.3781169787219934e+01 -4.1163696317502243e+00 -1.4714454584677466e+02 0 0 0
3185 128 4 0.0000000000000000e+00 -1.2714361059851072e+01 -4.2230230493573497e+00 -1.4035239103226914e+02 0 0 0
2267 91 2 0.0000000000000000e+00 -3.7237894172506887e+00 -5.3152720809658527e-01 -1.4692831230291529e+02 0 0 0
2266 91 2 0.0000000000000000e+00 3.1945471262838638e+00 -7.6539761314396326e+00 -1.4394798111192779e+02 0 0 0
3173 127 4 0.0000000000000000e+00 -6.5738018530133417e+01 2.2835192137854974e+00 -1.4770914207498529e+02 0 0 0
3172 127 4 0.0000000000000000e+00 -7.1155083697268680e+01 7.4316910483314604e+00 -1.4102260841170741e+02 0 0 0
4481 180 4 0.0000000000000000e+00 -6.3871463973762133e+01 1.4621891079862650e+01 -1.3985963948299118e+02 0 0 0
1574 63 2 0.0000000000000000e+00 -5.6366877096627633e+01 1.5919923622808271e+01 -1.4809645742182883e+02 0 0 0
1573 63 2 0.0000000000000000e+00 -4.6485293068673755e+01 1.2653094575198752e+01 -1.4578232588844946e+02 0 0 0
1572 63 2 0.0000000000000000e+00 -3.6219693951590720e+01 1.4953750696848301e+01 -1.4654962817802797e+02 0 0 0
2242 90 2 0.0000000000000000e+00 -1.7461203863799881e+01 3.4108975513977069e+00 -1.4896900516765865e+02 0 0 0
2243 90 2 0.0000000000000000e+00 -2.0141256639786626e+01 1.3005238928807737e+01 -1.4996684140802796e+02 0 0 0
4472 179 4 0.0000000000000000e+00 -1.9675376014041753e+01 -9.6924515195240843e+01 -1.2663333173969843e+02 0 0 0
4473 179 4 0.0000000000000000e+00 -1.0739345000486543e+01 -1.0118829080207243e+02 -1.2706838199950735e+02 0 0 0
4474 179 4 0.0000000000000000e+00 -4.5436856744853577e-01 -1.0109629501875222e+02 -1.2677297400136523e+02 0 0 0
4471 179 4 0.0000000000000000e+00 -2.5217575044193211e+01 -8.8952352078277841e+01 -1.2693655925459917e+02 0 0 0
4469 179 3 0.0000000000000000e+00 -2.4310493886299362e+01 -7.0489418013612678e+01 -1.2572411677322164e+02 0 0 0
4470 179 4 0.0000000000000000e+00 -2.2302490102941203e+01 -7.9631113591222217e+01 -1.2988213600785477e+02 0 0 0
4468 179 4 0.0000000000000000e+00 -3.3287579963182480e+01 -6.8257116125430557e+01 -1.3014704688142834e+02 0 0 0
2169 87 1 0.0000000000000000e+00 -1.4356471676075222e+01 -7.2336195260846196e+01 -1.3161813518993685e+02 0 0 0
2168 87 2 0.0000000000000000e+00 -4.4302270164593391e+00 -7.0993899086989146e+01 -1.3172866870301766e+02 0 0 0
4467 179 4 0.0000000000000000e+00 -4.1220208734246008e+01 -6.2405381763717195e+01 -1.3153743963313175e+02 0 0 0
2231 90 2 0.0000000000000000e+00 -5.2446509811763136e+01 -5.2266539328543729e+01 -1.3360721274005647e+02 0 0 0
2232 90 1 0.0000000000000000e+00 -5.8510172930313303e+01 -4.4688746728456984e+01 -1.3174449877620535e+02 0 0 0
2230 90 2 0.0000000000000000e+00 -4.3327303381809521e+01 -5.1683818468805207e+01 -1.3855726590176479e+02 0 0 0
1149 46 2 0.0000000000000000e+00 -4.7864486822132029e+01 -4.1351240463930196e+01 -1.3331564275635705e+02 0 0 0
2229 90 2 0.0000000000000000e+00 -3.4149386021089917e+01 -4.9664342475595788e+01 -1.3633214745961260e+02 0 0 0
2228 90 2 0.0000000000000000e+00 -2.5517532615984617e+01 -4.9104195354844215e+01 -1.3117916168470333e+02 0 0 0
2227 90 2 0.0000000000000000e+00 -1.5684845193586368e+01 -4.6084395460325233e+01 -1.2916702901260223e+02 0 0 0
4457 179 3 0.0000000000000000e+00 -6.6889034562570245e+01 -3.7736066737666022e+01 -1.2901983230114016e+02 0 0 0
4458 179 4 0.0000000000000000e+00 -6.7612506309474270e+01 -3.5406947523762092e+01 -1.3880061034336657e+02 0 0 0
2233 90 2 0.0000000000000000e+00 -5.7529970446275492e+01 -3.6505157111940562e+01 -1.2587717714165122e+02 0 0 0
4461 179 4 0.0000000000000000e+00 -5.1012288053209289e+01 -2.9080530713439682e+01 -1.3350949642979816e+02 0 0 0
2234 90 2 0.0000000000000000e+00 -5.8196640041959959e+01 -2.5985800902739602e+01 -1.2776275712283123e+02 0 0 0
3182 128 3 0.0000000000000000e+00 -9.8559741584726268e+00 -3.0919430225462232e+01 -1.3355512410533208e+02 0 0 0
3181 128 4 0.0000000000000000e+00 -1.8250366344924402e+01 -3.5652965569527133e+01 -1.3161098406645263e+02 0 0 0
3975 159 3 0.0000000000000000e+00 -9.6249045324399930e+01 -2.4803192493861115e+01 -1.2961865481541903e+02 0 0 0
3974 159 4 0.0000000000000000e+00 -8.7901983164893551e+01 -1.9694696979613212e+01 -1.3095966670197154e+02 0 0 0
3973 159 4 0.0000000000000000e+00 -8.2318900617060962e+01 -1.2041314494746079e+01 -1.2774355498940231e+02 0 0 0
2067 83 2 0.0000000000000000e+00 -6.6316705954611322e+01 -1.3506533866417893e+01 -1.3600068840231160e+02 0 0 0
2066 83 2 0.0000000000000000e+00 -5.6205643187627516e+01 -1.4516434442827713e+01 -1.3764032993784181e+02 0 0 0
2235 90 2 0.0000000000000000e+00 -6.0890582844717663e+01 -1.6404957134289297e+01 -1.2602251497274642e+02 0 0 0
2062 83 2 0.0000000000000000e+00 -3.3877920905927425e+01 -1.2026162938830355e+01 -1.2667505751462026e+02 0 0 0
3184 128 4 0.0000000000000000e+00 -1.1436471736098129e+01 -1.3835911454190986e+01 -1.3855674333892873e+02 0 0 0
3183 128 4 0.0000000000000000e+00 -8.1221797456169273e+00 -2.0871648803719680e+01 -1.3203005705844745e+02 0 0 0
3972 159 4 0.0000000000000000e+00 -7.8681887811049378e+01 -3.1884382582980741e+00 -1.2649091383095913e+02 0 0 0
2068 83 2 0.0000000000000000e+00 -6.9589141123686574e+01 -7.3348311283577567e+00 -1.2906436957940272e+02 0 0 0
4479 180 4 0.0000000000000000e+00 -6.2685950169734888e+01 -1.9935452665670608e+00 -1.3482664729655116e+02 0 0 0
2237 90 2 0.0000000000000000e+00 -5.1317708221535916e+01 -3.0359494131466653e+00 -1.3711926611640436e+02 0 0 0
2236 90 2 0.0000000000000000e+00 -5.5378108800043300e+01 -8.3136152621780930e+00 -1.2906609560140137e+02 0 0 0
2065 83 2 0.0000000000000000e+00 -4.6180023033895843e+01 -1.1168969061698688e+01 -1.3855088239949936e+02 0 0 0
2064 83 2 0.0000000000000000e+00 -3.8765226932101392e+01 -4.8920853018920436e+00 -1.3824502165476918e+02 0 0 0
3271 131 4 0.0000000000000000e+00 -3.5263235181261336e+01 -9.5709466605047988e-01 -1.2590837915418773e+02 0 0 0
2063 83 1 0.0000000000000000e+00 -3.0181303391611110e+01 -9.5801557491649376e+00 -1.3615532223958064e+02 0 0 0
3069 123 3 0.0000000000000000e+00 -2.2646654415782926e+01 -9.5509870369309058e-01 -1.3366388430579431e+02 0 0 0
3068 123 4 0.0000000000000000e+00 -1.8651045706245689e+01 -8.8347537106815412e+00 -1.2876657313229236e+02 0 0 0
3186 128 4 0.0000000000000000e+00 -6.7989427201564325e+00 -3.1736143042064255e+00 -1.3244030623595100e+02 0 0 0
4442 178 4 0.0000000000000000e+00 4.6282785160799333e+00 -5.0979040716002926e+00 -1.3126677644063315e+02 0 0 0
733 30 2 0.0000000000000000e+00 -1.0650692431262978e+02 1.1728257778360746e+01 -1.2637925329156081e+02 0 0 0
3971 159 4 0.0000000000000000e+00 -7.9307769576777318e+01 6.5391397872627675e+00 -1.2709633704893675e+02 0 0 0
3970 159 4 0.0000000000000000e+00 -8.0051492111250738e+01 1.4863271997632115e+01 -1.3243013824030717e+02 0 0 0
3171 127 4 0.0000000000000000e+00 -6.7276609807979810e+01 8.4070496806776784e+00 -1.3201739658162541e+02 0 0 0
3170 127 4 0.0000000000000000e+00 -6.2409176448055476e+01 3.7140236900105670e+00 -1.2551313913895568e+02 0 0 0
4480 180 4 0.0000000000000000e+00 -5.7916454727646240e+01 6.7873868546137084e+00 -1.3738338001583912e+02 0 0 0
3191 128 4 0.0000000000000000e+00 -5.1275700696350469e+01 1.1309696870063409e+01 -1.2577784204033372e+02 0 0 0
3190 128 4 0.0000000000000000e+00 -4.1993185528818081e+01 8.7833575906057533e+00 -1.2821612828137802e+02 0 0 0
3189 128 4 0.0000000000000000e+00 -3.1789767126442246e+01 9.2878754111723545e+00 -1.2648164771261285e+02 0 0 0
3071 123 4 0.0000000000000000e+00 -2.8036692949840656e+01 1.5649337733800797e+01 -1.3420393270637686e+02 0 0 0
3070 123 4 0.0000000000000000e+00 -2.0442523573086291e+01 8.6142655645747439e+00 -1.3681264738768613e+02 0 0 0
3187 128 4 0.0000000000000000e+00 -1.2442923849044547e+01 2.6947676847384021e+00 -1.2695918617463772e+02 0 0 0
2020 81 2 0.0000000000000000e+00 5.4801638413535700e+00 1.2924993508248244e+01 -1.3105565741864714e+02 0 0 0
2171 87 2 0.0000000000000000e+00 -5.4897474014065928e+00 -8.6661494905588498e+01 -1.2031876442899085e+02 0 0 0
2172 87 2 0.0000000000000000e+00 1.5256633214219995e+00 -9.3820244249181215e+01 -1.1681140496460904e+02 0 0 0
3056 123 4 0.0000000000000000e+00 -3.9793373331533907e+01 -7.9424871927604414e+01 -1.1250109407397979e+02 0 0 0
2170 87 2 0.0000000000000000e+00 -1.0583246094266054e+01 -7.7885015754265879e+01 -1.2406191731184259e+02 0 0 0
1834 74 2 0.0000000000000000e+00 -1.4802622222283025e+01 -6.8534718084756264e+01 -1.1209077565959012e+02 0 0 0
2167 87 2 0.0000000000000000e+00 1.7104316886368116e+00 -7.5502058867714027e+01 -1.2472379534848432e+02 0 0 0
1835 74 2 0.0000000000000000e+00 -5.2095508702472939e+00 -7.2080636150354323e+01 -1.1367715068438213e+02 0 0 0
2166 87 2 0.0000000000000000e+00 3.5129271666675645e+00 -8.0587003475439616e+01 -1.1610113121635086e+02 0 0 0
4466 179 4 0.0000000000000000e+00 -4.9213421357794559e+01 -6.0819955530427485e+01 -1.2549237822892351e+02 0 0 0
4465 179 4 0.0000000000000000e+00 -4.9024449713306673e+01 -5.4091957098834506e+01 -1.1834166161715440e+02 0 0 0
4464 179 4 0.0000000000000000e+00 -5.0217257376332206e+01 -4.5451296634005438e+01 -1.1295420580643288e+02 0 0 0
3178 128 4 0.0000000000000000e+00 -4.0079705529798275e+01 -4.2386600748949718e+01 -1.1401009511332465e+02 0 0 0
3179 128 4 0.0000000000000000e+00 -3.3192840712811346e+01 -4.0346930790393792e+01 -1.2092078565333495e+02 0 0 0
580 24 2 0.0000000000000000e+00 -2.1952038028472302e+01 -4.9283589264997609e+01 -1.1527524171392695e+02 0 0 0
579 24 2 0.0000000000000000e+00 -1.3756877888387363e+01 -4.3581497963600775e+01 -1.1223881295870525e+02 0 0 0
741 30 2 0.0000000000000000e+00 -8.0362176922944471e+01 -3.3434825848482703e+01 -1.1386937450518545e+02 0 0 0
4456 179 4 0.0000000000000000e+00 -6.8298597081785601e+01 -2.9686415582468456e+01 -1.2385733033376546e+02 0 0 0
742 30 2 0.0000000000000000e+00 -7.0276796688654656e+01 -3.5134358465431163e+01 -1.1439638074253944e+02 0 0 0
4463 179 3 0.0000000000000000e+00 -5.0191768289500786e+01 -3.5585750976003276e+01 -1.1566054447053686e+02 0 0 0
4462 179 4 0.0000000000000000e+00 -4.9076695522789713e+01 -2.8828394948701920e+01 -1.2366689737831969e+02 0 0 0
743 30 2 0.0000000000000000e+00 -6.1040993610458585e+01 -3.2177018727191253e+01 -1.1716700960724133e+02 0 0 0
1148 46 2 0.0000000000000000e+00 -4.5842747198745144e+01 -3.7993136478313012e+01 -1.2378361147029354e+02 0 0 0
1147 46 2 0.0000000000000000e+00 -3.9110867998195275e+01 -3.2564563547904697e+01 -1.1854096259065349e+02 0 0 0
3180 128 4 0.0000000000000000e+00 -2.5522281832874089e+01 -3.5289329792035879e+01 -1.2510262837053624e+02 0 0 0
1146 46 2 0.0000000000000000e+00 -3.1082705863575150e+01 -2.9182468387319012e+01 -1.1287822797575548e+02 0 0 0
2226 90 1 0.0000000000000000e+00 -1.0073361179872988e+01 -3.8894443790305587e+01 -1.2539671000997778e+02 0 0 0
736 30 2 0.0000000000000000e+00 -1.1233686458615173e+02 -1.2686543459691732e+01 -1.1281337274638695e+02 0 0 0
3166 127 4 0.0000000000000000e+00 -7.6155492266115459e+01 -1.6996915362728984e+01 -1.1649965661521605e+02 0 0 0
4455 179 4 0.0000000000000000e+00 -6.3994143618611801e+01 -2.2753833923431444e+01 -1.1805503615137508e+02 0 0 0
3167 127 4 0.0000000000000000e+00 -7.1822834895733806e+01 -1.7438761141743171e+01 -1.2536956951679066e+02 0 0 0
3274 131 4 0.0000000000000000e+00 -5.8946135023136918e+01 -1.2755705379130394e+01 -1.1648806977768032e+02 0 0 0
3273 131 4 0.0000000000000000e+00 -5.0114915695086587e+01 -1.3409136720252917e+01 -1.2220315289530645e+02 0 0 0
2061 83 2 0.0000000000000000e+00 -4.0783068568135114e+01 -1.8204651115128360e+01 -1.2160894016367044e+02 0 0 0
2060 83 2 0.0000000000000000e+00 -4.2602616787807484e+01 -2.3439843527139175e+01 -1.1348277177355541e+02 0 0 0
3066 123 4 0.0000000000000000e+00 -1.8164150013819928e+01 -2.4416573651083350e+01 -1.1537727990756473e+02 0 0 0
3067 123 4 0.0000000000000000e+00 -1.8658230172018108e+01 -1.5230754371474557e+01 -1.2109715024017046e+02 0 0 0
4790 192 4 0.0000000000000000e+00 -9.4708318021695259e+00 -1.7274159884085289e+01 -1.1221774720132530e+02 0 0 0
4789 192 4 0.0000000000000000e+00 -6.7163113221555939e+00 -1.8322336254063949e+01 -1.2176148131719491e+02 0 0 0
4788 192 3 0.0000000000000000e+00 2.2328798580505760e+00 -2.1011506254655526e+01 -1.2479669461667972e+02 0 0 0
735 30 2 0.0000000000000000e+00 -1.0795303423331458e+02 -5.0713555218047643e+00 -1.1951045511543133e+02 0 0 0
2008 81 2 0.0000000000000000e+00 -8.8705037416726597e+01 -6.6908296627037043e+00 -1.1428414623785838e+02 0 0 0
2009 81 2 0.0000000000000000e+00 -8.2818453866128223e+01 1.4054840463173350e+00 -1.1543724362462540e+02 0 0 0
3168 127 4 0.0000000000000000e+00 -6.8201524840022628e+01 -1.0505432694801442e+01 -1.1862742213187624e+02 0 0 0
2069 83 1 0.0000000000000000e+00 -7.1448263170402456e+01 -1.5403422335977792e+00 -1.2089182346152090e+02 0 0 0
3169 127 3 0.0000000000000000e+00 -6.0536156802275201e+01 -3.2161794511928461e+00 -1.1880694746287242e+02 0 0 0
3272 131 4 0.0000000000000000e+00 -4.4771744090206980e+01 -5.1988575339320215e+00 -1.2535737577276730e+02 0 0 0
3270 131 4 0.0000000000000000e+00 -2.9685775870558505e+01 -4.9717429739627557e+00 -1.1869796470970564e+02 0 0 0
1143 46 2 0.0000000000000000e+00 -1.9898434505145193e+01 -1.0074580118931920e+01 -1.1249957068062156e+02 0 0 0
1142 46 2 0.0000000000000000e+00 -1.0803284232507036e+01 -8.5030892214997422e+00 -1.1637976662644327e+02 0 0 0
1141 46 2 0.0000000000000000e+00 -4.6230976709130456e+00 -7.0901489251941086e-01 -1.1556047516422466e+02 0 0 0
4441 178 4 0.0000000000000000e+00 3.7091618359493812e+00 -6.8986291129336168e+00 -1.2077557341045612e+02 0 0 0
734 30 2 0.0000000000000000e+00 -1.0604127361320350e+02 4.5296414788356101e+00 -1.1938715366486734e+02 0 0 0
2010 81 2 0.0000000000000000e+00 -7.8045296518451835e+01 9.5193003857627030e+00 -1.1782521213902974e+02 0 0 0
2070 83 2 0.0000000000000000e+00 -6.6292250083614249e+01 4.3635757675896967e+00 -1.1505882801553976e+02 0 0 0
2011 81 2 0.0000000000000000e+00 -7.0671885012741868e+01 1.4054931261515838e+01 -1.2372093395431457e+02 0 0 0
2072 83 2 0.0000000000000000e+00 -4.8545671030229670e+01 3.8087204743071217e+00 -1.1685851829778443e+02 0 0 0
2073 83 2 0.0000000000000000e+00 -3.8453902541728112e+01 2.6604212252057975e+00 -1.1666972805683882e+02 0 0 0
3188 128 3 0.0000000000000000e+00 -2.1607334285377732e+01 6.6650286780232069e+00 -1.2433802591784359e+02 0 0 0
2074 83 2 0.0000000000000000e+00 -3.0290040248747630e+01 8.4458942579847367e+00 -1.1702982107950052e+02 0 0 0
2075 83 1 0.0000000000000000e+00 -2.1044507306050214e+01 1.2400992157464300e+01 -1.1478756082563189e+02 0 0 0
1140 46 2 0.0000000000000000e+00 3.3073944269992945e+00 4.1850164887514492e+00 -1.1801166948178322e+02 0 0 0
4386 176 4 0.0000000000000000e+00 -2.4113744286230453e+01 -1.0994416922323444e+02 -1.0062380341606156e+02 0 0 0
4385 176 4 0.0000000000000000e+00 -1.8613656955264219e+01 -1.1795302258232365e+02 -9.8484782149730279e+01 0 0 0
4387 176 4 0.0000000000000000e+00 -2.6818065981232511e+01 -1.0053911190060776e+02 -1.0167190755155059e+02 0 0 0
3055 123 4 0.0000000000000000e+00 -3.5531584659925734e+01 -8.7967380154707556e+01 -1.0987181328083425e+02 0 0 0
3054 123 4 0.0000000000000000e+00 -3.6137280933564888e+01 -8.6248342349953944e+01 -9.9966186284025270e+01 0 0 0
2165 87 2 0.0000000000000000e+00 3.1772827034977409e+00 -8.7304430303771511e+01 -1.0844940274462621e+02 0 0 0
3057 123 3 0.0000000000000000e+00 -4.4680741962633398e+01 -7.7250737754162358e+01 -1.0375346687593968e+02 0 0 0
4877 196 4 0.0000000000000000e+00 -2.8052068411829040e+01 -8.0481686130614008e+01 -1.0581971171576981e+02 0 0 0
4876 196 3 0.0000000000000000e+00 -2.4177638480877231e+01 -7.1184838415018348e+01 -1.0421922607729434e+02 0 0 0
1836 74 2 0.0000000000000000e+00 9.5065017903944837e-01 -7.3418820044079183e+01 -1.0552111038245640e+02 0 0 0
1534 62 2 0.0000000000000000e+00 -8.5053473799190400e+01 -5.9071843189223799e+01 -9.8065453019944925e+01 0 0 0
1533 62 2 0.0000000000000000e+00 -8.1744901140575919e+01 -5.4280004600104895e+01 -1.0705913355743475e+02 0 0 0
1175 47 1 0.0000000000000000e+00 -4.1189449739115759e+01 -6.7700556147082494e+01 -1.0776200792816203e+02 0 0 0
583 24 2 0.0000000000000000e+00 -4.3170655952847348e+01 -5.9994664022050820e+01 -9.7916122616955562e+01 0 0 0
1174 47 2 0.0000000000000000e+00 -3.2784142778006398e+01 -6.5668737439969902e+01 -1.0357073356756661e+02 0 0 0
1833 74 2 0.0000000000000000e+00 -2.0601975978220423e+01 -6.1683277536230527e+01 -1.0741653772050252e+02 0 0 0
59 3 2 0.0000000000000000e+00 1.5811892030987249e+00 -6.2405331191901467e+01 -1.0983627898146217e+02 0 0 0
58 3 2 0.0000000000000000e+00 -6.4278783653745508e+00 -6.0760462807269896e+01 -1.0364852482688666e+02 0 0 0
1532 62 1 0.0000000000000000e+00 -7.9388148883021273e+01 -4.4156452273252718e+01 -1.0630127456234419e+02 0 0 0
3163 127 3 0.0000000000000000e+00 -7.0936503850493679e+01 -4.0276558741943333e+01 -1.0003976652924537e+02 0 0 0
744 30 1 0.0000000000000000e+00 -5.8687037602261519e+01 -3.9910911439159065e+01 -1.1151722474955237e+02 0 0 0
582 24 1 0.0000000000000000e+00 -3.8450739042584267e+01 -5.3555641046652966e+01 -1.0468186902302071e+02 0 0 0
3176 128 3 0.0000000000000000e+00 -4.7908355596986901e+01 -5.0778109470553673e+01 -9.9872508636126312e+01 0 0 0
3177 128 4 0.0000000000000000e+00 -4.2988566343358436e+01 -4.3472930546027257e+01 -1.0430975916987721e+02 0 0 0
581 24 2 0.0000000000000000e+00 -3.0807869481596644e+01 -4.8786016619537655e+01 -1.1040296116688519e+02 0 0 0
3063 123 3 0.0000000000000000e+00 -3.0454734990891406e+01 -4.6048445539770249e+01 -9.9658626436834837e+01 0 0 0
1832 74 1 0.0000000000000000e+00 -2.0625287918924716e+01 -5.1737442516497111e+01 -1.0369254763093609e+02 0 0 0
1831 74 2 0.0000000000000000e+00 -2.0894169407603137e+01 -4.1535046770024401e+01 -1.0240257766549630e+02 0 0 0
2725 109 3 0.0000000000000000e+00 -1.1012344882403978e+01 -5.3057981425603600e+01 -9.9852868474614652e+01 0 0 0
2776 112 3 0.0000000000000000e+00 4.5452399122315006e+00 -4.3931906504676853e+01 -9.9542482002177493e+01 0 0 0
738 30 1 0.0000000000000000e+00 -1.0660896890620140e+02 -2.7675573696270789e+01 -1.0577269557233748e+02 0 0 0
739 30 2 0.0000000000000000e+00 -9.8929590315929786e+01 -3.4001628502705259e+01 -1.0657243738888681e+02 0 0 0
740 30 2 0.0000000000000000e+00 -8.9103245389554033e+01 -3.1151057997638326e+01 -1.0917167033455905e+02 0 0 0
1531 62 2 0.0000000000000000e+00 -8.1349583646033835e+01 -3.7027284676879503e+01 -9.9580153273095192e+01 0 0 0
3164 127 4 0.0000000000000000e+00 -6.9753351308705533e+01 -3.1016493145315817e+01 -1.0402364613266124e+02 0 0 0
745 30 2 0.0000000000000000e+00 -5.7460632235996130e+01 -3.8082307883016234e+01 -1.0195228903105313e+02 0 0 0
2059 83 2 0.0000000000000000e+00 -4.8308051600542399e+01 -2.8255051182155704e+01 -1.0712800789592883e+02 0 0 0
3266 131 4 0.0000000000000000e+00 -4.0214629235941551e+01 -3.4180220276282064e+01 -1.0025343607970989e+02 0 0 0
3064 123 4 0.0000000000000000e+00 -2.8596001031276973e+01 -3.9413703644596374e+01 -1.0757473953743715e+02 0 0 0
1145 46 2 0.0000000000000000e+00 -2.6043950019953069e+01 -2.7424185455160650e+01 -1.0457312924860740e+02 0 0 0
3065 123 4 0.0000000000000000e+00 -2.0606692721351703e+01 -3.3751753880808380e+01 -1.1128391832111787e+02 0 0 0
578 24 2 0.0000000000000000e+00 -8.5355046029945321e+00 -3.5221415963940913e+01 -1.1077153176226331e+02 0 0 0
1830 74 2 0.0000000000000000e+00 -1.5623242749738464e+01 -3.3725985185780686e+01 -1.0028430660474315e+02 0 0 0
577 24 2 0.0000000000000000e+00 -1.1197396237216909e+01 -2.6697963612053456e+01 -1.0688388172273940e+02 0 0 0
737 30 2 0.0000000000000000e+00 -1.1460278211457769e+02 -2.1510129040846131e+01 -1.0866378844561945e+02 0 0 0
4452 179 4 0.0000000000000000e+00 -7.6855826499859447e+01 -1.3496693089010396e+01 -1.0155010491034321e+02 0 0 0
3165 127 4 0.0000000000000000e+00 -7.2488627242535017e+01 -2.3764404909834067e+01 -1.1050899305932334e+02 0 0 0
4454 179 4 0.0000000000000000e+00 -6.2726156636484347e+01 -2.1860351261209285e+01 -1.0793518937262117e+02 0 0 0
4453 179 4 0.0000000000000000e+00 -6.7106373224318247e+01 -1.6915297374698767e+01 -1.0083874650395173e+02 0 0 0
2058 83 2 0.0000000000000000e+00 -5.2461145425998019e+01 -2.1292645796635139e+01 -1.0061805249771302e+02 0 0 0
3275 131 3 0.0000000000000000e+00 -5.2898706112831945e+01 -1.1968712765928148e+01 -1.0876688517425350e+02 0 0 0
3267 131 4 0.0000000000000000e+00 -3.9412430975075416e+01 -2.4566933785079090e+01 -1.0431976636890643e+02 0 0 0
3268 131 4 0.0000000000000000e+00 -3.7502559701259422e+01 -1.4522736894701815e+01 -1.0693525218006994e+02 0 0 0
1144 46 1 0.0000000000000000e+00 -2.3626294404269533e+01 -1.8093277507322661e+01 -1.0750577507248906e+02 0 0 0
576 24 1 0.0000000000000000e+00 -1.6965930537293428e+01 -2.2674793993520112e+01 -9.9980532394350774e+01 0 0 0
4791 192 4 0.0000000000000000e+00 -9.5992386747462159e+00 -1.5883533383276184e+01 -1.0206957704143068e+02 0 0 0
4785 192 4 0.0000000000000000e+00 3.6488901365157600e-01 -2.5074486214448381e+01 -1.0416722763577057e+02 0 0 0
1072 43 2 0.0000000000000000e+00 1.1185267428004551e+00 -1.4772157715077793e+01 -9.8931226441538215e+01 0 0 0
2007 81 1 0.0000000000000000e+00 -8.6779799578520411e+01 -5.4531978033420261e+00 -1.0431780744444001e+02 0 0 0
4828 194 4 0.0000000000000000e+00 -7.4785669583519223e+01 1.1167884220288189e+00 -9.8579916813233993e+01 0 0 0
2394 96 1 0.0000000000000000e+00 -5.1989529851541469e+01 -2.7040682909820144e+00 -1.0258509877783023e+02 0 0 0
2395 96 2 0.0000000000000000e+00 -6.1044131674601168e+01 -2.8137507233577774e+00 -9.8226818868812828e+01 0 0 0
1118 45 2 0.0000000000000000e+00 -3.8113457628679278e+01 -9.4258020786716334e-01 -1.0651253839168304e+02 0 0 0
1119 45 1 0.0000000000000000e+00 -3.3971782528864942e+01 -5.2035192710869191e+00 -9.8245510379235341e+01 0 0 0
3269 131 3 0.0000000000000000e+00 -3.0061127135280621e+01 -7.3288074471372360e+00 -1.0843412235049310e+02 0 0 0
4327 174 4 0.0000000000000000e+00 -2.2838816581676046e+01 -1.1004471044874991e+01 -9.9752672015753902e+01 0 0 0
4328 174 4 0.0000000000000000e+00 -1.9710958979874530e+01 -3.1818807589654043e+00 -1.0575123168324313e+02 0 0 0
1074 43 2 0.0000000000000000e+00 -1.1485974137490331e+01 -1.5476430754055548e+00 -9.9141529658538545e+01 0 0 0
1073 43 2 0.0000000000000000e+00 -4.6591409979344247e+00 -7.4479049608765555e+00 -1.0335180240198092e+02 0 0 0
4440 178 4 0.0000000000000000e+00 5.3194402839520176e+00 -6.8193037356059616e+00 -1.1115158378893136e+02 0 0 0
703 29 2 0.0000000000000000e+00 -7.1311732531114359e+01 1.6013848599739912e+01 -1.1138861974237672e+02 0 0 0
4829 194 4 0.0000000000000000e+00 -7.2612297600269073e+01 1.0316255774591280e+01 -1.0157448088212530e+02 0 0 0
2071 83 2 0.0000000000000000e+00 -5.6689105992116126e+01 3.2691766266551876e+00 -1.1135881768396663e+02 0 0 0
705 29 2 0.0000000000000000e+00 -5.1458125166596353e+01 1.5061607863813245e+01 -1.0956703833661199e+02 0 0 0
704 29 2 0.0000000000000000e+00 -6.1297220053816019e+01 1.6107078112985917e+01 -1.1134219689083933e+02 0 0 0
706 29 2 0.0000000000000000e+00 -4.3326534758814830e+01 1.3910645606259603e+01 -1.0383868378926701e+02 0 0 0
1117 45 2 0.0000000000000000e+00 -3.2102811337943528e+01 7.2972398919283634e+00 -1.0376977033622104e+02 0 0 0
1116 45 2 0.0000000000000000e+00 -2.4167449081431315e+01 1.3769627451596463e+01 -1.0294291184919891e+02 0 0 0
4329 174 4 0.0000000000000000e+00 -1.3553075357984486e+01 3.6397836304112858e+00 -1.0978740610875735e+02 0 0 0
4330 174 4 0.0000000000000000e+00 -5.4852198143699828e+00 8.6546159895616377e+00 -1.0660000576666673e+02 0 0 0
4331 174 4 0.0000000000000000e+00 -7.9860584687379843e-01 1.5797216272906857e+01 -1.0076115527932650e+02 0 0 0
4384 176 4 0.0000000000000000e+00 -9.5041329920983326e+00 -1.1921339985404812e+02 -9.3447701801413032e+01 0 0 0
4383 176 4 0.0000000000000000e+00 -8.2767363690100726e-01 -1.1487258135876523e+02 -9.1752634527882080e+01 0 0 0
2483 100 2 0.0000000000000000e+00 4.1752342067942401e+00 -1.0251823547332484e+02 -8.9258408479875044e+01 0 0 0
3053 123 4 0.0000000000000000e+00 -3.3053028757256193e+01 -8.9651738133711220e+01 -9.0879102905484942e+01 0 0 0
4388 176 3 0.0000000000000000e+00 -2.3894048860520016e+01 -9.4118465872233102e+01 -9.4381464874643314e+01 0 0 0
4878 196 4 0.0000000000000000e+00 -2.7355426737224413e+01 -8.2638720126637025e+01 -9.5943881332671140e+01 0 0 0
1451 59 1 0.0000000000000000e+00 -1.4775421334379027e+01 -8.8250692166750937e+01 -9.7049619608737103e+01 0 0 0
3077 124 4 0.0000000000000000e+00 -7.7829630484000578e+00 -8.7533578319380482e+01 -8.9646344647680408e+01 0 0 0
3076 124 3 0.0000000000000000e+00 7.7276155478381525e-01 -8.5972187651828605e+01 -9.3680637744617897e+01 0 0 0
1536 62 2 0.0000000000000000e+00 -8.7070302120940212e+01 -7.0785585725875777e+01 -8.4178674235065813e+01 0 0 0
3058 123 4 0.0000000000000000e+00 -4.7017406192493041e+01 -7.3855555537663165e+01 -9.5022916276160814e+01 0 0 0
1172 47 2 0.0000000000000000e+00 -3.6768016003192976e+01 -7.4512022932620425e+01 -8.6428672636702345e+01 0 0 0
1173 47 2 0.0000000000000000e+00 -3.5210910366438107e+01 -6.8533050226000427e+01 -9.4481352261079323e+01 0 0 0
4879 196 4 0.0000000000000000e+00 -2.4884496952155423e+01 -7.5231028778560386e+01 -8.9512583471231039e+01 0 0 0
1452 59 2 0.0000000000000000e+00 -1.3067495260680396e+01 -7.8195778386241699e+01 -9.6148534911475011e+01 0 0 0
56 3 2 0.0000000000000000e+00 -1.6702754237800786e+01 -6.8478111176919725e+01 -8.7930461148972498e+01 0 0 0
1453 59 2 0.0000000000000000e+00 -6.7635813891702519e+00 -7.1433851821701765e+01 -9.5480215691847789e+01 0 0 0
1454 59 2 0.0000000000000000e+00 -3.8968327786244678e-01 -7.1856508520555764e+01 -8.7810868556715718e+01 0 0 0
600 24 1 0.0000000000000000e+00 -9.2719072341923265e+01 -5.3824155538556091e+01 -9.1919518985874859e+01 0 0 0
1535 62 2 0.0000000000000000e+00 -8.9266332053125694e+01 -6.2930160862592089e+01 -8.9723025305501864e+01 0 0 0
3160 127 4 0.0000000000000000e+00 -7.1636111405979179e+01 -6.1384575487386869e+01 -9.2706805150634040e+01 0 0 0
3161 127 4 0.0000000000000000e+00 -6.1771616900510303e+01 -5.7130415821144616e+01 -9.5490860973672710e+01 0 0 0
3059 123 4 0.0000000000000000e+00 -4.4322901022022378e+01 -6.5809700971566230e+01 -8.9359950742176011e+01 0 0 0
4881 196 4 0.0000000000000000e+00 -2.3655860672802639e+01 -5.8065882727925000e+01 -8.6202723198211771e+01 0 0 0
4880 196 4 0.0000000000000000e+00 -2.8740482067258903e+01 -6.6964517111589203e+01 -8.6549935481718705e+01 0 0 0
3062 123 4 0.0000000000000000e+00 -3.0936758871238695e+01 -5.4733198613330742e+01 -9.3621591342548456e+01 0 0 0
57 3 1 0.0000000000000000e+00 -1.2069377050487107e+01 -6.3555349345846324e+01 -9.5625550155378249e+01 0 0 0
1530 62 2 0.0000000000000000e+00 -8.9093541426114314e+01 -4.1791621510415133e+01 -9.5725180025569060e+01 0 0 0
1529 62 2 0.0000000000000000e+00 -9.4196609927031517e+01 -4.2978518892204967e+01 -8.7623891691736233e+01 0 0 0
4676 188 3 0.0000000000000000e+00 -8.2107996778350952e+01 -4.8560065714952778e+01 -8.6583830956285624e+01 0 0 0