LAMMPS data file via write_data, version 5 Jun 2019, timestep = 400000000

5000 atoms
4 atom types
5259 bonds
3 bond types
4600 angles
2 angle types

-2.5000000000000000e+02 2.5000000000000000e+02 xlo xhi
-2.5000000000000000e+02 2.5000000000000000e+02 ylo yhi
-2.5000000000000000e+02 2.5000000000000000e+02 zlo zhi

Masses

1 1000
2 1000
3 1000
4 1000

Pair Coeffs # lj/cut

1 0.3 10
2 0.3 10
3 0.3 10
4 0.3 10

Bond Coeffs # harmonic

1 3 10
2 3 10
3 1.8 11.22

Angle Coeffs # cosine

1 2
2 2

Atoms # full

2801 113 3 0.0000000000000000e+00 -1.4310455765251339e+01 -2.8255048728949578e+01 -1.6740420429260689e+02 0 0 0
1018 41 2 0.0000000000000000e+00 1.2868569424893204e+00 -1.3978279092629936e+01 -1.7003831705925234e+02 0 0 0
1009 41 2 0.0000000000000000e+00 -2.1988484348579281e+01 -4.8675568720039708e+00 -1.6874902284193513e+02 0 0 0
1020 41 2 0.0000000000000000e+00 -3.9364379546265980e+00 -1.5131030482346401e+00 -1.7687381518505777e+02 0 0 0
1021 41 2 0.0000000000000000e+00 -1.3921007136901149e+01 -2.5068907113330083e+00 -1.7773876447985421e+02 0 0 0
1019 41 1 0.0000000000000000e+00 4.8825688098066369e+00 -6.5655415727516653e+00 -1.7556362812971119e+02 0 0 0
3426 138 3 0.0000000000000000e+00 1.0243281443249034e+01 -9.6460896806060390e+00 -1.6654166842148274e+02 0 0 0
1024 41 2 0.0000000000000000e+00 -3.9292721320936089e+01 1.0632328291863292e+01 -1.7733355222965437e+02 0 0 0
2967 119 4 0.0000000000000000e+00 -3.1336706407574923e+01 1.1677662426920259e+01 -1.6778645286946758e+02 0 0 0
1025 41 1 0.0000000000000000e+00 -4.1014312150233778e+01 8.6488376335734785e+00 -1.6689956473014414e+02 0 0 0
1022 41 2 0.0000000000000000e+00 -2.0879814137917897e+01 4.3721255385666069e+00 -1.7831468640167529e+02 0 0 0
1023 41 2 0.0000000000000000e+00 -2.9259786743002284e+01 9.4982426334379859e+00 -1.7882483120968922e+02 0 0 0
2968 119 4 0.0000000000000000e+00 -2.1881260841357772e+01 8.6575437067849350e+00 -1.6568353871219955e+02 0 0 0
2971 119 4 0.0000000000000000e+00 7.1236392139280831e+00 1.7153186098211819e+01 -1.6636445250385552e+02 0 0 0
2131 86 2 0.0000000000000000e+00 -2.6175688910668491e+01 -4.0250617701328387e+01 -1.5207528090538995e+02 0 0 0
2548 102 4 0.0000000000000000e+00 1.8307208478414143e+01 -4.0622910417021608e+01 -1.5287014330687444e+02 0 0 0
2130 86 2 0.0000000000000000e+00 -2.0835333130938171e+01 -3.2789437214484963e+01 -1.5758590678028040e+02 0 0 0
2802 113 4 0.0000000000000000e+00 -5.1132914488434551e+00 -2.7802254269911181e+01 -1.6363790490578182e+02 0 0 0
2803 113 4 0.0000000000000000e+00 1.6034397280641537e+00 -2.8161539423669989e+01 -1.5687255431811070e+02 0 0 0
1016 41 2 0.0000000000000000e+00 1.2720262587618762e+01 -2.6745653119585374e+01 -1.6126733685507247e+02 0 0 0
1015 41 2 0.0000000000000000e+00 1.1833454640586748e+01 -3.1013418765157663e+01 -1.5193981525334479e+02 0 0 0
3410 137 4 0.0000000000000000e+00 -1.9370846367356528e+01 -1.0852379694749887e+01 -1.5639737587833079e+02 0 0 0
3411 137 4 0.0000000000000000e+00 -2.7233960350849177e+01 -1.6397910932339471e+01 -1.5293771220726703e+02 0 0 0
1376 56 1 0.0000000000000000e+00 -1.0469104723827710e+01 -1.7822869374247496e+01 -1.6352664085268182e+02 0 0 0
1377 56 2 0.0000000000000000e+00 -1.1875554499339621e+01 -2.2099304009888332e+01 -1.5478934151830282e+02 0 0 0
1017 41 2 0.0000000000000000e+00 4.9411236501848732e+00 -2.1174789540577152e+01 -1.6373858198858102e+02 0 0 0
3427 138 4 0.0000000000000000e+00 1.5745745176095889e+01 -1.5351255395111449e+01 -1.6101705704125081e+02 0 0 0
2575 103 3 0.0000000000000000e+00 -3.7581133250169557e+01 3.1404175993826065e+00 -1.5749311754600288e+02 0 0 0
1008 41 2 0.0000000000000000e+00 -2.7801669841481470e+01 -1.1834833377568743e+00 -1.6096064158780067e+02 0 0 0
1010 41 2 0.0000000000000000e+00 -1.3679025848030431e+01 -6.4091532831179077e+00 -1.6273116492397025e+02 0 0 0
3409 137 4 0.0000000000000000e+00 -1.6328118453838012e+01 -1.9918446542847692e+00 -1.5200733605344197e+02 0 0 0
1011 41 2 0.0000000000000000e+00 -6.1548909130649774e+00 -5.1363503398836912e+00 -1.5658502807886566e+02 0 0 0
3442 138 4 0.0000000000000000e+00 1.2878607480286721e+01 -2.6169432682225136e+00 -1.5776102220139467e+02 0 0 0
3441 138 4 0.0000000000000000e+00 2.1839154184751681e+01 -4.0041043051736684e+00 -1.6310041393360822e+02 0 0 0
3408 137 4 0.0000000000000000e+00 -1.8464375691056794e+01 6.5751069174376759e+00 -1.5568800752415578e+02 0 0 0
3407 137 3 0.0000000000000000e+00 -2.6729491308431705e+01 1.1323482667932355e+01 -1.5522149259589523e+02 0 0 0
2969 119 3 0.0000000000000000e+00 -1.2185293000721044e+01 1.1648020296927445e+01 -1.6460282406775528e+02 0 0 0
1387 56 2 0.0000000000000000e+00 -1.3854756805487053e+01 1.6823241653835435e+01 -1.5216118919294337e+02 0 0 0
2970 119 4 0.0000000000000000e+00 -2.3626706172273386e+00 1.3771761236174314e+01 -1.6515432774023282e+02 0 0 0
2972 119 4 0.0000000000000000e+00 9.6912674601308950e+00 1.5020962805848262e+01 -1.5652757113747992e+02 0 0 0
2132 86 1 0.0000000000000000e+00 -1.8790607285723677e+01 -4.3082353351650703e+01 -1.4546275919539482e+02 0 0 0
2546 102 4 0.0000000000000000e+00 5.1869326016363693e-01 -4.2835724594294454e+01 -1.4603859811709563e+02 0 0 0
2547 102 4 0.0000000000000000e+00 9.9672996110414243e+00 -4.3110521279455611e+01 -1.4789092299103311e+02 0 0 0
2129 86 2 0.0000000000000000e+00 -2.4409319794536490e+01 -2.6931763132872625e+01 -1.4947442976478763e+02 0 0 0
1379 56 2 0.0000000000000000e+00 -1.8175952667695071e+01 -3.1454421544461212e+01 -1.4188818261193293e+02 0 0 0
3413 137 3 0.0000000000000000e+00 -2.8711794420175696e+01 -2.5903154281224328e+01 -1.3857501185277096e+02 0 0 0
2545 102 4 0.0000000000000000e+00 -8.3989811662772098e+00 -3.7749474291509138e+01 -1.4402139497407842e+02 0 0 0
1378 56 2 0.0000000000000000e+00 -1.2402213119310296e+01 -3.0149079688268827e+01 -1.5019732052591988e+02 0 0 0
2804 113 4 0.0000000000000000e+00 -8.7645830462041396e-01 -3.2223252179031270e+01 -1.4733460205392112e+02 0 0 0
2805 113 4 0.0000000000000000e+00 3.6839484972165919e+00 -3.3529281228388314e+01 -1.3866576270389194e+02 0 0 0
2540 102 4 0.0000000000000000e+00 2.2650187700516543e+01 -3.1253138442493988e+01 -1.4052169263197234e+02 0 0 0
3412 137 4 0.0000000000000000e+00 -3.1974892003621392e+01 -1.8123603742555179e+01 -1.4424573283791446e+02 0 0 0
2128 86 2 0.0000000000000000e+00 -2.0521536634274479e+01 -1.8219384827000074e+01 -1.4543938864370503e+02 0 0 0
2127 86 2 0.0000000000000000e+00 -1.2093692501331128e+01 -1.5390820373798698e+01 -1.4038949589850327e+02 0 0 0
2126 86 1 0.0000000000000000e+00 -8.7659295060647384e+00 -2.4249173887924091e+01 -1.4307552943775585e+02 0 0 0
1014 41 2 0.0000000000000000e+00 7.4375298001576065e+00 -2.4484090168815733e+01 -1.4561346283052697e+02 0 0 0
1013 41 1 0.0000000000000000e+00 1.9727584790967119e+00 -1.5912499717446821e+01 -1.4448208233553746e+02 0 0 0
3651 147 3 0.0000000000000000e+00 1.7967737684764447e+01 -2.1436631002621940e+01 -1.4641620617344043e+02 0 0 0
4426 178 3 0.0000000000000000e+00 1.2779892691811334e+01 -1.2114654320184352e+01 -1.4354839902627313e+02 0 0 0
1007 41 1 0.0000000000000000e+00 -2.8300808429976623e+01 4.8194260926937255e-01 -1.5111009806435703e+02 0 0 0
1384 56 2 0.0000000000000000e+00 -2.5108371244594988e+01 -3.6151054119538277e+00 -1.3791368490426981e+02 0 0 0
2975 119 3 0.0000000000000000e+00 -5.8929684766003740e+00 -3.9288368665389595e-01 -1.4038360311016646e+02 0 0 0
1012 41 2 0.0000000000000000e+00 -7.6769711357401016e-01 -7.1461940716483054e+00 -1.4822480625227479e+02 0 0 0
3443 138 4 0.0000000000000000e+00 9.4251084512192627e+00 -5.3304609933334901e-01 -1.4855657916134916e+02 0 0 0
1559 63 2 0.0000000000000000e+00 1.9592063718451666e+01 -6.1176553251402721e-01 -1.4782920021354644e+02 0 0 0
1560 63 2 0.0000000000000000e+00 1.3845473413633238e+01 -2.7839782065346488e+00 -1.3980358715544077e+02 0 0 0
2574 103 4 0.0000000000000000e+00 -3.7364819643388032e+01 1.1174291919276635e+01 -1.5079036013143647e+02 0 0 0
1006 41 2 0.0000000000000000e+00 -3.2182611978284847e+01 6.0397884448377175e+00 -1.4349136802584150e+02 0 0 0
1183 48 2 0.0000000000000000e+00 -4.1774281690337553e+01 1.3982050686638654e+01 -1.3776571080244869e+02 0 0 0
1005 41 2 0.0000000000000000e+00 -2.8877816086626275e+01 1.5616666542694013e+01 -1.4351096705510744e+02 0 0 0
1386 56 2 0.0000000000000000e+00 -1.7935760669398292e+01 1.0614948010670522e+01 -1.4527074419989879e+02 0 0 0
1385 56 2 0.0000000000000000e+00 -2.3341884768216758e+01 5.9891733654263417e+00 -1.3777278444628899e+02 0 0 0
2974 119 4 0.0000000000000000e+00 -4.4761861514720840e+00 8.0224419270769456e+00 -1.4567821580372978e+02 0 0 0
2973 119 4 0.0000000000000000e+00 1.7220538603395019e+00 1.4774937284746580e+01 -1.5031971724288218e+02 0 0 0
3444 138 3 0.0000000000000000e+00 1.1936341766084295e+01 9.2907832271505555e+00 -1.4648969688902196e+02 0 0 0
1563 63 1 0.0000000000000000e+00 2.2339559147055226e+01 1.2923406268427229e+01 -1.4264847645706041e+02 0 0 0
3099 124 4 0.0000000000000000e+00 -1.9129183965647492e+01 -7.0431016349790170e+01 -1.2437500501923790e+02 0 0 0
3100 124 3 0.0000000000000000e+00 -1.6283347053847805e+01 -7.0679813911612413e+01 -1.3414447086745466e+02 0 0 0
2251 91 1 0.0000000000000000e+00 -1.0215176756117861e+01 -6.4923952834232921e+01 -1.2691849915034558e+02 0 0 0
3416 137 4 0.0000000000000000e+00 -3.1034274855274461e+01 -4.5225693614254901e+01 -1.2535260003793634e+02 0 0 0
2135 86 2 0.0000000000000000e+00 -1.3973563265279475e+01 -5.0808744936752596e+01 -1.2308553877678763e+02 0 0 0
2133 86 2 0.0000000000000000e+00 -1.4903491946753235e+01 -4.1592665488917682e+01 -1.3617823722742065e+02 0 0 0
2136 86 2 0.0000000000000000e+00 -6.2672005326990226e+00 -5.1080692040116780e+01 -1.3010563763792442e+02 0 0 0
2134 86 2 0.0000000000000000e+00 -1.4663953886513633e+01 -4.0996589510647468e+01 -1.2615751426936706e+02 0 0 0
2137 86 2 0.0000000000000000e+00 -1.6489545733233701e+00 -4.2465544308331879e+01 -1.2757190968579981e+02 0 0 0
4184 168 4 0.0000000000000000e+00 -8.7515374921310084e+01 -2.5128220458532549e+01 -1.2360341138367905e+02 0 0 0
3414 137 4 0.0000000000000000e+00 -2.8545512675205217e+01 -2.5968686486071995e+01 -1.2840183155881329e+02 0 0 0
3415 137 4 0.0000000000000000e+00 -2.9553195528236778e+01 -3.6082150565258594e+01 -1.2908854253433910e+02 0 0 0
1380 56 2 0.0000000000000000e+00 -2.0459457288684700e+01 -3.2499032816377792e+01 -1.3195960074506146e+02 0 0 0
1381 56 2 0.0000000000000000e+00 -1.9278264011610645e+01 -2.6386562300097172e+01 -1.2379919887772434e+02 0 0 0
2544 102 3 0.0000000000000000e+00 -1.0074477749819399e+01 -3.2618057279740839e+01 -1.3484001490005744e+02 0 0 0
2543 102 4 0.0000000000000000e+00 -3.3045603997277113e+00 -2.6854581625763529e+01 -1.2951848802473802e+02 0 0 0
2138 86 1 0.0000000000000000e+00 3.9013173499965106e+00 -3.4384658989688525e+01 -1.2493415810495718e+02 0 0 0
2806 113 4 0.0000000000000000e+00 1.1102336446129897e+01 -3.4498631833088332e+01 -1.3103567724107856e+02 0 0 0
2541 102 4 0.0000000000000000e+00 1.5242979451328825e+01 -2.6527726272675121e+01 -1.3545223270132547e+02 0 0 0
1382 56 1 0.0000000000000000e+00 -2.0817284297671282e+01 -2.1319999314758885e+01 -1.3177463388092724e+02 0 0 0
1383 56 2 0.0000000000000000e+00 -2.1794222705423405e+01 -1.1907354752740607e+01 -1.3362373386338226e+02 0 0 0
1189 48 2 0.0000000000000000e+00 -9.0254956981582222e+00 -1.3660210527118812e+01 -1.2705953181733567e+02 0 0 0
2542 102 4 0.0000000000000000e+00 5.6734929906726137e+00 -2.3965638011092718e+01 -1.3295282530832219e+02 0 0 0
3212 129 4 0.0000000000000000e+00 1.7638829368096136e+01 -2.0125916268350046e+01 -1.2308112402929827e+02 0 0 0
3970 159 4 0.0000000000000000e+00 -6.3961583776546348e+01 2.3567121565767195e+00 -1.3172754314496976e+02 0 0 0
3971 159 4 0.0000000000000000e+00 -6.3128095899074559e+01 -7.4080594110167937e+00 -1.2880093082032425e+02 0 0 0
2912 117 4 0.0000000000000000e+00 -2.3642672072167958e+01 2.0975778755799770e-02 -1.2570219849142093e+02 0 0 0
2913 117 3 0.0000000000000000e+00 -2.2086517080489401e+01 -1.0066988037285533e+01 -1.2336227804164469e+02 0 0 0
1188 48 1 0.0000000000000000e+00 -1.2216246656310123e+01 -6.6425889056518308e+00 -1.3346934210243643e+02 0 0 0
4427 178 4 0.0000000000000000e+00 9.9542196958407629e+00 -9.8353792358182979e+00 -1.3418208617873719e+02 0 0 0
4428 178 4 0.0000000000000000e+00 3.1081716805646216e+00 -3.4657789135248480e+00 -1.3180369581815950e+02 0 0 0
1561 63 2 0.0000000000000000e+00 1.2616476856188555e+01 1.8094508259746820e+00 -1.3142700022752771e+02 0 0 0
3975 159 3 0.0000000000000000e+00 -9.5084944604503292e+01 1.0595606923831951e+01 -1.2341912565687714e+02 0 0 0
1901 77 1 0.0000000000000000e+00 -5.9195864480005810e+01 7.0906897320734821e+00 -1.2315285075345983e+02 0 0 0
1902 77 2 0.0000000000000000e+00 -6.2382624190094305e+01 1.5675874759401900e+01 -1.2691432451893762e+02 0 0 0
3969 159 3 0.0000000000000000e+00 -5.6970337007519575e+01 9.3724091043348032e+00 -1.3384520152871173e+02 0 0 0
1182 48 1 0.0000000000000000e+00 -4.8350987461123026e+01 1.6839754018673919e+01 -1.3113859024925029e+02 0 0 0
2911 117 4 0.0000000000000000e+00 -3.1157669553906842e+01 6.5419110821100990e+00 -1.2584186575668949e+02 0 0 0
2910 117 4 0.0000000000000000e+00 -2.8805188048987436e+01 1.5655693956400876e+01 -1.2377095378111071e+02 0 0 0
2564 103 4 0.0000000000000000e+00 -2.0646114783562137e+01 9.7901676976373899e+00 -1.2371842084075470e+02 0 0 0
1186 48 2 0.0000000000000000e+00 -1.5597371634076305e+01 1.3532799167176005e+01 -1.3366283103669466e+02 0 0 0
4430 178 4 0.0000000000000000e+00 -4.9140272799395950e+00 1.3006046389617211e+01 -1.3534677932508160e+02 0 0 0
1187 48 2 0.0000000000000000e+00 -1.4303411596967944e+01 3.5439521814520787e+00 -1.3362627429518366e+02 0 0 0
4429 178 4 0.0000000000000000e+00 9.2452302936303166e-01 6.1624218737444174e+00 -1.3039116002332347e+02 0 0 0
1562 63 2 0.0000000000000000e+00 1.5247150922647487e+01 1.0523991991353164e+01 -1.3614469408754050e+02 0 0 0
2231 90 2 0.0000000000000000e+00 -2.3086734850528174e+01 -7.3087977499499033e+01 -1.1027394865210728e+02 0 0 0
3098 124 4 0.0000000000000000e+00 -1.6836778746208385e+01 -6.3232785123823902e+01 -1.1792692271463832e+02 0 0 0
3097 124 4 0.0000000000000000e+00 -9.0423612167018401e+00 -6.1393018150478696e+01 -1.1163742620674303e+02 0 0 0
2252 91 2 0.0000000000000000e+00 -4.5185092188510332e+00 -5.7931738927633504e+01 -1.2201808181043539e+02 0 0 0
2919 117 3 0.0000000000000000e+00 9.4914342178973821e-02 -5.6766614808778492e+01 -1.1238394423407888e+02 0 0 0
2920 117 4 0.0000000000000000e+00 1.0061269050389848e+01 -5.6334505755870012e+01 -1.1040048088247916e+02 0 0 0
3417 137 4 0.0000000000000000e+00 -3.4557628257794931e+01 -4.7331586368749939e+01 -1.1592170488361802e+02 0 0 0
2253 91 2 0.0000000000000000e+00 -2.8079069365780573e+00 -4.8771538059422539e+01 -1.1783724370500694e+02 0 0 0
2254 91 2 0.0000000000000000e+00 1.0219098023761155e+00 -3.9555350923660789e+01 -1.1537824810296055e+02 0 0 0
2807 113 3 0.0000000000000000e+00 1.3231760330847939e+01 -4.0319841225305545e+01 -1.2276405786470076e+02 0 0 0
2808 113 4 0.0000000000000000e+00 1.5556811372166326e+01 -4.6744870167970298e+01 -1.1536077806312979e+02 0 0 0
4183 168 4 0.0000000000000000e+00 -7.8057861795461051e+01 -2.7766994287394255e+01 -1.2139745250720688e+02 0 0 0
4182 168 3 0.0000000000000000e+00 -7.4822198709863898e+01 -2.6064789142623940e+01 -1.1194770571704400e+02 0 0 0
2250 90 1 0.0000000000000000e+00 -6.3720956246493699e+01 -2.8746124009552780e+01 -1.1028225993224088e+02 0 0 0
4898 196 4 0.0000000000000000e+00 -3.0594805135501186e+01 -3.1170523892170774e+01 -1.1013028290860748e+02 0 0 0
2916 117 4 0.0000000000000000e+00 -1.9375141889901300e+01 -3.5995511681726832e+01 -1.1198137385227160e+02 0 0 0
2915 117 4 0.0000000000000000e+00 -2.2919979817969097e+01 -2.6821990356980066e+01 -1.1429851561912659e+02 0 0 0
2255 91 2 0.0000000000000000e+00 9.8876247058994799e+00 -3.5318327808659035e+01 -1.1487356663349983e+02 0 0 0
2139 86 2 0.0000000000000000e+00 6.6346842462908366e+00 -2.6150634216466607e+01 -1.1862343678141900e+02 0 0 0
2256 91 2 0.0000000000000000e+00 1.8700737845869334e+01 -3.3760145168831883e+01 -1.1065996220324377e+02 0 0 0
3213 129 3 0.0000000000000000e+00 2.1037517096431678e+01 -2.9607724946788444e+01 -1.2224880056323670e+02 0 0 0
4185 168 4 0.0000000000000000e+00 -9.5530949568308102e+01 -1.9147185169235073e+01 -1.2061848453644359e+02 0 0 0
4186 168 4 0.0000000000000000e+00 -9.9243444582894654e+01 -1.1083708166362458e+01 -1.1558187375313851e+02 0 0 0
728 30 2 0.0000000000000000e+00 -8.9517654971937688e+01 -1.4577188255069322e+01 -1.1453339613517957e+02 0 0 0
2249 90 2 0.0000000000000000e+00 -6.2302434515221698e+01 -1.8736691302316526e+01 -1.1219533432082156e+02 0 0 0
2051 83 1 0.0000000000000000e+00 -5.0785321739398633e+01 -1.2312046570084132e+01 -1.1686903307049769e+02 0 0 0
4899 196 4 0.0000000000000000e+00 -3.3410138326086972e+01 -2.1411928932529481e+01 -1.1210411647395463e+02 0 0 0
4900 196 3 0.0000000000000000e+00 -4.0369150740880933e+01 -1.7915025796854941e+01 -1.1851967149381025e+02 0 0 0
2914 117 4 0.0000000000000000e+00 -2.3888558611280274e+01 -1.8218108919187301e+01 -1.1882441079429809e+02 0 0 0
1190 48 2 0.0000000000000000e+00 -1.0184071181805706e+01 -1.5953539075708655e+01 -1.1776325640868092e+02 0 0 0
2140 86 2 0.0000000000000000e+00 3.0162986239745586e+00 -1.6564256563468479e+01 -1.1690576015814770e+02 0 0 0
3211 129 4 0.0000000000000000e+00 1.2565331367104312e+01 -1.4636069526745937e+01 -1.1650115724056484e+02 0 0 0
4187 168 4 0.0000000000000000e+00 -1.0555985937777095e+02 -4.5218122127757017e+00 -1.1038753416183408e+02 0 0 0
1526 62 1 0.0000000000000000e+00 -9.2896323128553661e+01 -9.3743961244571516e-01 -1.0893452053433477e+02 0 0 0
3973 159 4 0.0000000000000000e+00 -7.8049244983407746e+01 -7.9959955409183148e-01 -1.1904313327376825e+02 0 0 0
3972 159 4 0.0000000000000000e+00 -6.9634882272842177e+01 -6.7211786669343452e+00 -1.2128370891552734e+02 0 0 0
2248 90 2 0.0000000000000000e+00 -6.1728925545933670e+01 -9.3904576864150400e+00 -1.1507435154187556e+02 0 0 0
2247 90 2 0.0000000000000000e+00 -6.5196136675223812e+01 -1.0339268227156175e+00 -1.1059381388347911e+02 0 0 0
2456 99 2 0.0000000000000000e+00 -3.1077479685645148e+01 -8.6799294400949778e-01 -1.1682440305970054e+02 0 0 0
2240 90 2 0.0000000000000000e+00 -3.6304937117656699e+01 -7.7278000133924651e+00 -1.0890563770061132e+02 0 0 0
2457 99 1 0.0000000000000000e+00 -2.6606597017474638e+01 -8.8861646539243626e+00 -1.1268339695385090e+02 0 0 0
2142 86 2 0.0000000000000000e+00 -5.9016310558251952e+00 5.7565283417814272e-01 -1.2191312552396917e+02 0 0 0
1191 48 2 0.0000000000000000e+00 -1.0236580832552702e+01 -7.6172887439562436e+00 -1.1226929743342329e+02 0 0 0
1192 48 2 0.0000000000000000e+00 -8.1801591624343910e+00 2.0995337424636822e+00 -1.1202974961813126e+02 0 0 0
2141 86 2 0.0000000000000000e+00 -1.9282966135146986e+00 -8.0368730720134689e+00 -1.1728952675684111e+02 0 0 0
3473 139 4 0.0000000000000000e+00 4.8532323870217224e+00 2.4583191941002620e+00 -1.1195316473424548e+02 0 0 0
3210 129 4 0.0000000000000000e+00 1.4414422011941653e+01 -5.6757075639614483e+00 -1.1394576986402761e+02 0 0 0
3974 159 4 0.0000000000000000e+00 -8.7075185972641790e+01 4.2721543687260271e+00 -1.2054675458935775e+02 0 0 0
1425 57 1 0.0000000000000000e+00 -8.5670796784775760e+01 1.6649631909697472e+01 -1.2020309148032187e+02 0 0 0
3326 134 3 0.0000000000000000e+00 -6.9104195956838623e+01 1.1575553712991267e+01 -1.2073875030099721e+02 0 0 0
2246 90 2 0.0000000000000000e+00 -6.2047765354333968e+01 8.4399328039737735e+00 -1.1069660210622381e+02 0 0 0
2454 99 2 0.0000000000000000e+00 -4.7168797110814104e+01 1.1236743894566715e+01 -1.2183715081629217e+02 0 0 0
2455 99 2 0.0000000000000000e+00 -3.8254160901079445e+01 6.8145905649607883e+00 -1.1821064635501936e+02 0 0 0
2563 103 3 0.0000000000000000e+00 -1.8855508093468888e+01 5.6770120487927462e+00 -1.1402500972318116e+02 0 0 0
2143 86 2 0.0000000000000000e+00 -4.8848992588303668e+00 1.0774838249796918e+01 -1.2219700264606615e+02 0 0 0
2144 86 1 0.0000000000000000e+00 -1.3181089001231401e+01 1.3440813287097951e+01 -1.1742004439806539e+02 0 0 0
3472 139 4 0.0000000000000000e+00 4.7047710714856334e+00 9.3433191030399581e+00 -1.1911218417861296e+02 0 0 0
1193 48 2 0.0000000000000000e+00 -1.7458954853815503e+00 1.0191358846269386e+01 -1.1055860464693680e+02 0 0 0
2551 103 3 0.0000000000000000e+00 1.6729167315365082e+01 5.0596837187015815e+00 -1.2095093386221578e+02 0 0 0
3449 138 4 0.0000000000000000e+00 1.6155254083634063e+01 1.1705014475442788e+01 -1.1167641183264595e+02 0 0 0
3448 138 4 0.0000000000000000e+00 1.3575852495608997e+01 1.5936160228639425e+01 -1.1997117615167443e+02 0 0 0
2789 112 4 0.0000000000000000e+00 2.3617849412622785e+01 -9.6575347714158255e+01 -9.8162082789724650e+01 0 0 0
2228 90 2 0.0000000000000000e+00 -4.6412853714996301e+00 -9.3309852261303377e+01 -1.0223443986340844e+02 0 0 0
2229 90 2 0.0000000000000000e+00 -1.2394719195172287e+01 -8.8012735308814314e+01 -1.0287620438751215e+02 0 0 0
2227 90 2 0.0000000000000000e+00 3.5583193444507057e+00 -9.2864778045388505e+01 -9.5993540623371274e+01 0 0 0
2788 112 3 0.0000000000000000e+00 1.9360643664837198e+01 -8.7526643148335140e+01 -9.7569218938306335e+01 0 0 0
4473 179 4 0.0000000000000000e+00 -4.6151844186897222e+01 -7.0098050002842669e+01 -1.0155323087917691e+02 0 0 0
4474 179 4 0.0000000000000000e+00 -5.4817489872373265e+01 -7.2263394744569126e+01 -9.6310350820641062e+01 0 0 0
4472 179 4 0.0000000000000000e+00 -3.7375582435147784e+01 -7.3708454158747955e+01 -1.0498034152188514e+02 0 0 0
2230 90 2 0.0000000000000000e+00 -1.7415766647078076e+01 -8.0846597426362877e+01 -1.0837780858998322e+02 0 0 0
4471 179 4 0.0000000000000000e+00 -2.9471935120111748e+01 -7.3489787022462465e+01 -9.8690089406570522e+01 0 0 0
4470 179 4 0.0000000000000000e+00 -1.9950321370279280e+01 -7.2805981595937723e+01 -9.5781137901778820e+01 0 0 0
3096 124 4 0.0000000000000000e+00 -6.4619766444497930e+00 -7.0435091722876365e+01 -1.0843455395307991e+02 0 0 0
4787 192 4 0.0000000000000000e+00 1.8910192523252494e+01 -6.7686095697412725e+01 -9.5781903201645818e+01 0 0 0
4788 192 3 0.0000000000000000e+00 1.1935764368264811e+01 -7.4875846228237975e+01 -9.4791606975647696e+01 0 0 0
593 24 2 0.0000000000000000e+00 -6.8915900560759326e+01 -5.6091298137431004e+01 -9.5950727337852783e+01 0 0 0
2234 90 2 0.0000000000000000e+00 -4.5911112617668039e+01 -5.6278023311371328e+01 -1.0022525614288807e+02 0 0 0
2233 90 2 0.0000000000000000e+00 -3.8746089849742134e+01 -6.1992920795766487e+01 -1.0473562462120472e+02 0 0 0
2232 90 1 0.0000000000000000e+00 -3.0357902449156271e+01 -6.6401299615994887e+01 -1.0849256819193857e+02 0 0 0
3419 137 3 0.0000000000000000e+00 -2.5703324471063151e+01 -5.7508614718097100e+01 -1.0267928137984799e+02 0 0 0
3420 137 4 0.0000000000000000e+00 -1.7015009501854536e+01 -5.8386991124645995e+01 -9.7385660026847205e+01 0 0 0
3095 124 4 0.0000000000000000e+00 -7.5615898476079089e+00 -6.5142838673908741e+01 -9.9724524627136915e+01 0 0 0
3421 137 4 0.0000000000000000e+00 -7.6266247121981507e+00 -5.5623000093125235e+01 -9.6032385156206743e+01 0 0 0
264 11 2 0.0000000000000000e+00 3.8833655414821764e+00 -6.4013694511633616e+01 -1.0414013220516478e+02 0 0 0
265 11 2 0.0000000000000000e+00 2.0708843618959683e+00 -5.4341299576594182e+01 -1.0248863727275742e+02 0 0 0
2921 117 4 0.0000000000000000e+00 1.3304636044172517e+01 -6.0954828011017391e+01 -1.0223838239768621e+02 0 0 0
2810 113 4 0.0000000000000000e+00 2.2785550043492460e+01 -5.6151057413271985e+01 -1.0104658358211326e+02 0 0 0
594 24 1 0.0000000000000000e+00 -6.2842804422984294e+01 -4.8388954334284946e+01 -9.8763204819447594e+01 0 0 0
595 24 2 0.0000000000000000e+00 -6.0178535008830139e+01 -3.9623071487252638e+01 -1.0214495350891860e+02 0 0 0
2235 90 2 0.0000000000000000e+00 -5.2490759459850693e+01 -5.0081190046638625e+01 -1.0301348560527424e+02 0 0 0
2236 90 2 0.0000000000000000e+00 -4.8503241765937815e+01 -4.1170770035212556e+01 -1.0321909652032205e+02 0 0 0
3418 137 4 0.0000000000000000e+00 -3.1196012681611098e+01 -5.1681818159099059e+01 -1.0797157831126823e+02 0 0 0
4897 196 4 0.0000000000000000e+00 -3.3621265985460610e+01 -3.8947429903241151e+01 -1.0429784164619686e+02 0 0 0
4896 196 4 0.0000000000000000e+00 -2.9384217351613799e+01 -4.1664932749484237e+01 -9.5663892496895386e+01 0 0 0
2917 117 4 0.0000000000000000e+00 -1.3070590185934035e+01 -4.2336389413895198e+01 -1.0758026567519359e+02 0 0 0
2918 117 4 0.0000000000000000e+00 -7.4006404360868521e+00 -5.0902139014334907e+01 -1.0792974041036750e+02 0 0 0
2461 99 2 0.0000000000000000e+00 -1.6949809525586080e+01 -4.1992778301562076e+01 -9.5074262865788143e+01 0 0 0
266 11 2 0.0000000000000000e+00 4.2181248172845436e+00 -4.4353619412125290e+01 -1.0173872671460775e+02 0 0 0
2809 113 4 0.0000000000000000e+00 2.0383014925280342e+01 -4.8743792119655502e+01 -1.0710058531353054e+02 0 0 0
2922 117 4 0.0000000000000000e+00 1.2039019102362086e+01 -5.2878095081561632e+01 -9.6972202131000444e+01 0 0 0
4181 168 4 0.0000000000000000e+00 -7.5463454416071386e+01 -2.9895903649291498e+01 -1.0279956076333764e+02 0 0 0
4180 168 4 0.0000000000000000e+00 -7.2241648817441700e+01 -3.6348823697850762e+01 -9.5636064865759522e+01 0 0 0
596 24 2 0.0000000000000000e+00 -5.7844645631318201e+01 -3.0862700516857124e+01 -9.7465170880006255e+01 0 0 0
2237 90 2 0.0000000000000000e+00 -4.3883531552990640e+01 -3.2564767828114036e+01 -1.0173213224325173e+02 0 0 0
2460 99 2 0.0000000000000000e+00 -1.9821140005550458e+01 -3.3822202388043564e+01 -1.0013350909964753e+02 0 0 0
2459 99 2 0.0000000000000000e+00 -2.1978513201941677e+01 -2.5392286376456184e+01 -1.0374251618165911e+02 0 0 0
2016 81 2 0.0000000000000000e+00 -2.9376404631938642e+00 -3.1303189962249984e+01 -1.0128691997202866e+02 0 0 0
267 11 2 0.0000000000000000e+00 7.9618646980893031e+00 -3.5698274425253580e+01 -1.0317366140976578e+02 0 0 0
268 11 2 0.0000000000000000e+00 8.7917293808300627e+00 -2.6254376606976795e+01 -1.0701667731879040e+02 0 0 0
51 3 1 0.0000000000000000e+00 1.8536189340823025e+01 -3.1052234819305362e+01 -9.8346442691889038e+01 0 0 0
729 30 2 0.0000000000000000e+00 -9.1089127957422846e+01 -2.2550854717681453e+01 -1.0822290898322640e+02 0 0 0
730 30 2 0.0000000000000000e+00 -9.0943016991711801e+01 -2.4097575915393644e+01 -9.7749173565860360e+01 0 0 0
726 30 1 0.0000000000000000e+00 -9.0235062764223684e+01 -1.1768500424043081e+01 -9.6069491991723496e+01 0 0 0
3826 154 3 0.0000000000000000e+00 -7.9034269929592682e+01 -1.2349301782922447e+01 -9.6051473622364881e+01 0 0 0
598 24 2 0.0000000000000000e+00 -6.2398100870453774e+01 -1.5106021082910690e+01 -9.5340399432704970e+01 0 0 0
597 24 2 0.0000000000000000e+00 -5.8137089998374243e+01 -2.1533381959166338e+01 -1.0191473354052583e+02 0 0 0
2053 83 2 0.0000000000000000e+00 -5.2529204794773889e+01 -1.3483370629217829e+01 -9.7348569227101393e+01 0 0 0
2052 83 2 0.0000000000000000e+00 -5.1776703713951349e+01 -1.1480579176520038e+01 -1.0726654934110239e+02 0 0 0
2239 90 2 0.0000000000000000e+00 -3.7417673633248619e+01 -1.3732681945712732e+01 -1.0068393548731471e+02 0 0 0
2238 90 1 0.0000000000000000e+00 -4.2203276677257008e+01 -2.2648200225426979e+01 -9.8675059770709268e+01 0 0 0
2458 99 2 0.0000000000000000e+00 -2.1838285242006435e+01 -1.5391644750959221e+01 -1.0606501332188196e+02 0 0 0
56 3 2 0.0000000000000000e+00 -1.5840384069051987e+01 -2.4726755888574566e+01 -9.5103339317985203e+01 0 0 0
2015 81 2 0.0000000000000000e+00 -8.2271143385299244e+00 -2.4552608065889633e+01 -1.0653542626438286e+02 0 0 0
2014 81 2 0.0000000000000000e+00 -1.2341151416468721e+01 -1.6460619021384183e+01 -1.0401793057025839e+02 0 0 0
2013 81 1 0.0000000000000000e+00 -1.6429227015630023e+01 -1.2804886467563334e+01 -9.6166026806470285e+01 0 0 0
269 11 1 0.0000000000000000e+00 6.1288390349761981e+00 -1.8495088940306800e+01 -1.0115757163248041e+02 0 0 0
3475 139 3 0.0000000000000000e+00 -2.7998838921640350e+00 -1.3230058019973182e+01 -1.0524138940151951e+02 0 0 0
270 11 2 0.0000000000000000e+00 -4.7182825043958798e-01 -1.4262312314609103e+01 -9.5150075384725696e+01 0 0 0
52 3 2 0.0000000000000000e+00 1.8823846185579907e+01 -2.1456270466454825e+01 -9.6908739265916623e+01 0 0 0
1527 62 2 0.0000000000000000e+00 -9.9429512114767178e+01 -2.6329813890059146e+00 -1.0036575438550017e+02 0 0 0
727 30 2 0.0000000000000000e+00 -9.2452516935472389e+01 -1.0157412095747061e+01 -1.0542395223869720e+02 0 0 0
2241 90 2 0.0000000000000000e+00 -4.3359241347422035e+01 -3.9138649029996482e+00 -1.0277797969264387e+02 0 0 0
3189 128 4 0.0000000000000000e+00 -2.6469262131359958e+01 1.8356734895181642e-01 -1.0566729714056849e+02 0 0 0
3188 128 3 0.0000000000000000e+00 -1.8935907481632729e+01 -6.4335070869391080e+00 -1.0545144261734829e+02 0 0 0
3187 128 4 0.0000000000000000e+00 -1.1089868761667828e+01 -9.4982282299804921e-01 -1.0259739015777866e+02 0 0 0
3474 139 4 0.0000000000000000e+00 3.7660239129197004e+00 -6.4522191499466741e+00 -1.0844845187419803e+02 0 0 0
3186 128 4 0.0000000000000000e+00 -1.5993140948027698e+00 -1.1567320307635951e+00 -9.9195476015000850e+01 0 0 0
3185 128 4 0.0000000000000000e+00 7.3165747283840750e+00 9.2494949219900668e-01 -9.5762536945185346e+01 0 0 0
3209 129 4 0.0000000000000000e+00 1.5802026522022587e+01 1.1785059077477011e-01 -1.0634164974754648e+02 0 0 0
3208 129 4 0.0000000000000000e+00 1.4424977006725376e+01 -8.2128955642579839e+00 -1.0090385935109919e+02 0 0 0
4188 168 3 0.0000000000000000e+00 -1.0235881082199155e+02 4.6085586028422929e+00 -1.0691855695841986e+02 0 0 0
4189 168 4 0.0000000000000000e+00 -1.0404963651236264e+02 1.4217083584436786e+01 -1.0777765539599770e+02 0 0 0
3071 123 4 0.0000000000000000e+00 -1.0408836921681238e+02 1.0168267990339269e+01 -9.8580127285480742e+01 0 0 0
3070 123 4 0.0000000000000000e+00 -9.4408069107476422e+01 7.4471260032115474e+00 -1.0078246822096938e+02 0 0 0
2064 83 2 0.0000000000000000e+00 -7.7048090043042393e+01 1.4207580091826308e+01 -9.9119312168699295e+01 0 0 0