LAMMPS data file via write_data, version 5 Jun 2019, timestep = 400000000

5000 atoms
4 atom types
5253 bonds
3 bond types
4600 angles
2 angle types

-2.5000000000000000e+02 2.5000000000000000e+02 xlo xhi
-2.5000000000000000e+02 2.5000000000000000e+02 ylo yhi
-2.5000000000000000e+02 2.5000000000000000e+02 zlo zhi

Masses

1 1000
2 1000
3 1000
4 1000

Pair Coeffs # lj/cut

1 0.3 10
2 0.3 10
3 0.3 10
4 0.3 10

Bond Coeffs # harmonic

1 3 10
2 3 10
3 1.8 11.22

Angle Coeffs # cosine

1 2
2 2

Atoms # full

3065 123 4 0.0000000000000000e+00 -8.3101760555521338e+01 -3.7584539462811115e+01 -1.6534879896859252e+02 0 0 0
2150 86 1 0.0000000000000000e+00 -6.1851237583484640e+01 -3.7190881413413621e+01 -1.6440863236317085e+02 0 0 0
3426 138 3 0.0000000000000000e+00 -5.3896091619004274e+01 -3.0911769629429816e+01 -1.6757510981800388e+02 0 0 0
3427 138 4 0.0000000000000000e+00 -4.4338251499019485e+01 -2.8117675039662910e+01 -1.6958701716180548e+02 0 0 0
3428 138 4 0.0000000000000000e+00 -3.8545584704499980e+01 -2.0641820368756324e+01 -1.7395461872360880e+02 0 0 0
2901 117 3 0.0000000000000000e+00 -1.2813494880434990e+02 -1.4052602627902242e+01 -1.6603416198667813e+02 0 0 0
3429 138 4 0.0000000000000000e+00 -3.1119526066148666e+01 -1.5584239809498033e+01 -1.7830709785404886e+02 0 0 0
3430 138 4 0.0000000000000000e+00 -2.4861119803448887e+01 -7.6764744684074797e+00 -1.7619201398272224e+02 0 0 0
1555 63 2 0.0000000000000000e+00 -6.3473265016894445e+01 5.0116674837698207e+00 -1.7130758943304025e+02 0 0 0
3423 137 4 0.0000000000000000e+00 -5.3197657751013736e+01 2.1809987975087792e+00 -1.6456922516304073e+02 0 0 0
1554 63 2 0.0000000000000000e+00 -5.7113409858265008e+01 1.3014230923552629e+01 -1.7209842561900192e+02 0 0 0
3420 137 4 0.0000000000000000e+00 -4.6839662688910224e+01 1.5232880023650910e+01 -1.6539060842201943e+02 0 0 0
1553 63 2 0.0000000000000000e+00 -5.6048140616426920e+01 2.2247750386720814e+01 -1.6827191726732073e+02 0 0 0
3061 123 4 0.0000000000000000e+00 -9.0466076462057416e+01 -5.9051189154422133e+01 -1.6290329923210487e+02 0 0 0
3062 123 4 0.0000000000000000e+00 -9.1934353050430829e+01 -5.3292739791394652e+01 -1.5539113461233924e+02 0 0 0
3060 123 4 0.0000000000000000e+00 -8.1117018500756032e+01 -5.7201953919369863e+01 -1.5925014765785932e+02 0 0 0
3059 123 4 0.0000000000000000e+00 -7.1494045933623198e+01 -5.6696528024094583e+01 -1.5590340940407452e+02 0 0 0
3665 147 4 0.0000000000000000e+00 -6.5618605275298549e+01 -4.7327709958266254e+01 -1.5753216807556339e+02 0 0 0
3664 147 4 0.0000000000000000e+00 -5.5617626215658255e+01 -4.8667682791738919e+01 -1.5903542553293289e+02 0 0 0
3663 147 3 0.0000000000000000e+00 -4.6256688308249323e+01 -4.9020006749294481e+01 -1.5485755039780534e+02 0 0 0
3662 147 4 0.0000000000000000e+00 -3.7649832834334958e+01 -4.9417254533267894e+01 -1.5065249850958011e+02 0 0 0
2238 90 1 0.0000000000000000e+00 -1.0229340768197736e+02 -3.5886543782220947e+01 -1.5070775079257135e+02 0 0 0
3063 123 3 0.0000000000000000e+00 -9.3974363168188162e+01 -4.3596596943930237e+01 -1.5332839279726099e+02 0 0 0
3064 123 4 0.0000000000000000e+00 -8.8233129768172049e+01 -3.5865615287503985e+01 -1.5675729954831641e+02 0 0 0
3067 123 4 0.0000000000000000e+00 -7.7310519220081375e+01 -4.1214601267792986e+01 -1.5444395025037480e+02 0 0 0
3066 123 4 0.0000000000000000e+00 -7.3168262538937412e+01 -4.0020891814174156e+01 -1.6371970967302252e+02 0 0 0
2376 96 1 0.0000000000000000e+00 -4.6674782935311150e+01 -4.1136554298392547e+01 -1.6349234281248764e+02 0 0 0
4328 174 4 0.0000000000000000e+00 -5.7127689890144900e+01 -3.3251285944285989e+01 -1.5384978435833048e+02 0 0 0
2377 96 2 0.0000000000000000e+00 -4.2819038660276092e+01 -3.8486930347936998e+01 -1.5489919160330444e+02 0 0 0
600 24 1 0.0000000000000000e+00 -3.3903995858708498e+01 -3.8479513289640174e+01 -1.6154280579945490e+02 0 0 0
707 29 1 0.0000000000000000e+00 -1.2865183606975472e+02 -2.3518205841620279e+01 -1.5955404061119202e+02 0 0 0
706 29 2 0.0000000000000000e+00 -1.2711304694294954e+02 -3.0024584487888824e+01 -1.5192002512066139e+02 0 0 0
2239 90 2 0.0000000000000000e+00 -1.1051091631277433e+02 -3.0302857013805269e+01 -1.5186307867823180e+02 0 0 0
2148 86 2 0.0000000000000000e+00 -7.5140955669832948e+01 -2.9405628940074198e+01 -1.5275735738352617e+02 0 0 0
2149 86 2 0.0000000000000000e+00 -6.8445634244712934e+01 -3.0442311000616659e+01 -1.6031321225011217e+02 0 0 0
729 30 2 0.0000000000000000e+00 -6.3591131913650280e+01 -1.9770887132445846e+01 -1.5215108261369963e+02 0 0 0
4327 174 4 0.0000000000000000e+00 -5.0155336572932363e+01 -2.8079256938402022e+01 -1.5893379060692135e+02 0 0 0
728 30 2 0.0000000000000000e+00 -5.3859958299588556e+01 -2.1315952430683556e+01 -1.5238347567164723e+02 0 0 0
4326 174 3 0.0000000000000000e+00 -4.0426071164671498e+01 -2.9805936107093139e+01 -1.5893271959809061e+02 0 0 0
727 30 2 0.0000000000000000e+00 -4.3892272032784447e+01 -2.1324618127293821e+01 -1.5218831353872687e+02 0 0 0
599 24 2 0.0000000000000000e+00 -3.1244695216420951e+01 -3.1863782878422686e+01 -1.5469574014180986e+02 0 0 0
708 29 2 0.0000000000000000e+00 -1.3074861127063116e+02 -1.5338440640005743e+01 -1.5249360781360920e+02 0 0 0
1563 63 1 0.0000000000000000e+00 -1.0947396195048771e+02 -9.4325768367805605e+00 -1.5161368043888598e+02 0 0 0
1559 63 2 0.0000000000000000e+00 -8.0745063875256591e+01 -1.2025673204740995e+01 -1.5212417643708889e+02 0 0 0
2143 86 2 0.0000000000000000e+00 -4.2476261247805297e+01 -8.0860008184456333e+00 -1.5262498701760197e+02 0 0 0
2902 117 4 0.0000000000000000e+00 -1.2958825258745969e+02 -5.2069549209847121e+00 -1.6121631721401786e+02 0 0 0
2903 117 4 0.0000000000000000e+00 -1.2927324137029004e+02 3.3042231293437161e+00 -1.5608056418497105e+02 0 0 0
1564 63 2 0.0000000000000000e+00 -1.1750835078955498e+02 -3.0327785923051791e+00 -1.5077207850300059e+02 0 0 0
2907 117 3 0.0000000000000000e+00 -1.0026489595024846e+02 -3.6401164101005046e+00 -1.5040993339494685e+02 0 0 0
2908 117 4 0.0000000000000000e+00 -9.1002363210915902e+01 -3.4185475342906275e+00 -1.5369443604941213e+02 0 0 0
2909 117 4 0.0000000000000000e+00 -8.4330140200564742e+01 4.1485168229105289e+00 -1.5357997024840546e+02 0 0 0
1558 63 2 0.0000000000000000e+00 -7.6535517357950269e+01 -3.8512941293109879e+00 -1.5059723850255713e+02 0 0 0
1556 63 2 0.0000000000000000e+00 -6.3953443432210946e+01 -1.4967872041336736e+00 -1.6391350348272360e+02 0 0 0
1557 63 1 0.0000000000000000e+00 -7.2320379357071161e+01 -1.9336463863335875e+00 -1.5946189268543927e+02 0 0 0
3424 137 4 0.0000000000000000e+00 -5.4758433859277709e+01 -1.6644762229553975e+00 -1.5527981932927082e+02 0 0 0
3422 137 4 0.0000000000000000e+00 -4.3793543349512305e+01 4.4140633717370816e+00 -1.6335722429479563e+02 0 0 0
2141 86 2 0.0000000000000000e+00 -2.7096513579591900e+01 -2.1598105304859789e+00 -1.5545127377481973e+02 0 0 0
2904 117 4 0.0000000000000000e+00 -1.2172741726107057e+02 8.5318328721276000e+00 -1.5197544014991044e+02 0 0 0
2910 117 4 0.0000000000000000e+00 -7.8254390822665428e+01 1.1357935062630798e+01 -1.5590373239912330e+02 0 0 0
2911 117 4 0.0000000000000000e+00 -7.4617831221726320e+01 2.0509999006346241e+01 -1.5724895599698368e+02 0 0 0
538 22 1 0.0000000000000000e+00 -6.3442511636903930e+01 1.9575688746816073e+01 -1.5326889822664404e+02 0 0 0
537 22 2 0.0000000000000000e+00 -6.1585502081728876e+01 9.5570460862649611e+00 -1.5301436872291964e+02 0 0 0
3418 137 4 0.0000000000000000e+00 -5.0519399482026273e+01 1.1270001840442468e+01 -1.5273618200732116e+02 0 0 0
3419 137 3 0.0000000000000000e+00 -5.4309675807914218e+01 1.7875072284382210e+01 -1.5942431309789166e+02 0 0 0
3421 137 4 0.0000000000000000e+00 -3.7636205788903027e+01 1.2650656849223674e+01 -1.6279930703925984e+02 0 0 0
4433 178 4 0.0000000000000000e+00 -3.8286437559302179e+01 1.7369477842268246e+01 -1.5442931073756699e+02 0 0 0
4434 178 4 0.0000000000000000e+00 -3.1366965308202374e+01 9.1952122185518430e+00 -1.5436816144438146e+02 0 0 0
3922 157 4 0.0000000000000000e+00 -8.6622060524888994e+01 3.0775362779461744e+01 -1.5305570199869092e+02 0 0 0
1384 56 2 0.0000000000000000e+00 -7.2714481246942185e+01 3.0211915561986785e+01 -1.5225219638666101e+02 0 0 0
2912 117 4 0.0000000000000000e+00 -6.7867249654255403e+01 2.7172235002550178e+01 -1.6095786245187648e+02 0 0 0
539 22 2 0.0000000000000000e+00 -5.9095262796755016e+01 2.8488274758868446e+01 -1.5522803627377570e+02 0 0 0
1552 63 2 0.0000000000000000e+00 -5.1401170926519271e+01 2.9776468217406368e+01 -1.6261964369938792e+02 0 0 0
1551 63 1 0.0000000000000000e+00 -4.8677655587023914e+01 3.4314877204257655e+01 -1.5424794041071277e+02 0 0 0
4432 178 3 0.0000000000000000e+00 -4.0281421411117321e+01 2.6935541301046232e+01 -1.5218223264144217e+02 0 0 0
2882 116 3 0.0000000000000000e+00 -1.0982511828791888e+02 -7.6764390077816458e+01 -1.3742726334868865e+02 0 0 0
2880 116 4 0.0000000000000000e+00 -1.1643663243084292e+02 -6.2583263208211413e+01 -1.4407510397264426e+02 0 0 0
2881 116 4 0.0000000000000000e+00 -1.1502092498445657e+02 -7.2431007840514752e+01 -1.4561733852411331e+02 0 0 0
3668 147 4 0.0000000000000000e+00 -7.4479050920904484e+01 -6.3731717626411431e+01 -1.3594309019935315e+02 0 0 0
2249 90 2 0.0000000000000000e+00 -8.5391735219988419e+01 -6.0228189074060346e+01 -1.3749511572364005e+02 0 0 0
3057 123 3 0.0000000000000000e+00 -6.0683686498206605e+01 -6.1101530429775018e+01 -1.4070475303993834e+02 0 0 0
2879 116 4 0.0000000000000000e+00 -1.1958965481085089e+02 -5.4631358330207298e+01 -1.3892378367474689e+02 0 0 0
2236 90 2 0.0000000000000000e+00 -1.0761304764579718e+02 -4.8273724404728036e+01 -1.3800297073820281e+02 0 0 0
3070 123 4 0.0000000000000000e+00 -9.6835793024197542e+01 -5.0891564427568312e+01 -1.3967616935517512e+02 0 0 0
3069 123 3 0.0000000000000000e+00 -8.6710167078314441e+01 -5.1029091735235632e+01 -1.4085186774308588e+02 0 0 0
2250 90 1 0.0000000000000000e+00 -8.1850686975160670e+01 -5.8915862265521845e+01 -1.4690348176895708e+02 0 0 0
3068 123 4 0.0000000000000000e+00 -7.9237578028710388e+01 -4.6877934594730988e+01 -1.4577944689936777e+02 0 0 0
3058 123 4 0.0000000000000000e+00 -6.3572106232741383e+01 -5.7563564685498157e+01 -1.5007529180777118e+02 0 0 0
3667 147 4 0.0000000000000000e+00 -7.0976684810080656e+01 -5.5765667420909764e+01 -1.4089788711901986e+02 0 0 0
3666 147 4 0.0000000000000000e+00 -6.9163133535111683e+01 -4.9873837696472428e+01 -1.4881277622886896e+02 0 0 0
4473 179 4 0.0000000000000000e+00 -3.6137093519691312e+01 -5.0679770976851756e+01 -1.3719364831755956e+02 0 0 0
705 29 2 0.0000000000000000e+00 -1.2441729045310923e+02 -3.5179743054468020e+01 -1.4362290668462481e+02 0 0 0
2237 90 2 0.0000000000000000e+00 -1.0163285111938511e+02 -4.3997459825751349e+01 -1.4507762906221353e+02 0 0 0
3222 129 4 0.0000000000000000e+00 -1.0731951920217766e+02 -3.5014188079851174e+01 -1.3972969877862019e+02 0 0 0
3410 137 4 0.0000000000000000e+00 -6.1348566901983226e+01 -4.0620692517982427e+01 -1.3739782965057847e+02 0 0 0
3411 137 4 0.0000000000000000e+00 -5.1811806475464806e+01 -3.7236413184838568e+01 -1.3702796464922608e+02 0 0 0
3661 147 4 0.0000000000000000e+00 -3.2856754386511078e+01 -4.1129788849372673e+01 -1.4753379171510110e+02 0 0 0
3660 147 4 0.0000000000000000e+00 -2.8279973220029650e+01 -4.2730978447282638e+01 -1.3832098393012367e+02 0 0 0
597 24 2 0.0000000000000000e+00 -2.0914918341492520e+01 -3.3298657619875570e+01 -1.4457929296987012e+02 0 0 0
2240 90 2 0.0000000000000000e+00 -1.1574908855685663e+02 -2.3110034885685351e+01 -1.4660296450075637e+02 0 0 0
704 29 2 0.0000000000000000e+00 -1.2509070947906149e+02 -2.9072848922887868e+01 -1.3604737672727822e+02 0 0 0
2241 90 2 0.0000000000000000e+00 -1.1052635946723754e+02 -2.0509906225900419e+01 -1.3886208419784035e+02 0 0 0
1561 63 2 0.0000000000000000e+00 -9.5309749014324709e+01 -2.2565111060951107e+01 -1.4657122804052256e+02 0 0 0
3221 129 4 0.0000000000000000e+00 -9.9867670092055448e+01 -2.9084184893153175e+01 -1.3769142733633089e+02 0 0 0
1560 63 2 0.0000000000000000e+00 -8.5774333897921508e+01 -1.9975148241774875e+01 -1.4841759254487440e+02 0 0 0
2147 86 2 0.0000000000000000e+00 -7.4371925834749973e+01 -2.5882676383836184e+01 -1.4382759511831827e+02 0 0 0
4329 174 4 0.0000000000000000e+00 -6.2674571284527808e+01 -2.9657115403690508e+01 -1.4549216457530196e+02 0 0 0
4330 174 4 0.0000000000000000e+00 -6.7468651303465720e+01 -3.0237984139300902e+01 -1.3678009255573664e+02 0 0 0
2146 86 2 0.0000000000000000e+00 -6.6573957303882224e+01 -2.0819566429354680e+01 -1.4119135698244156e+02 0 0 0
2380 96 2 0.0000000000000000e+00 -5.7976446686107629e+01 -2.5617498134442020e+01 -1.3604408524680719e+02 0 0 0
2379 96 2 0.0000000000000000e+00 -5.0355285030017512e+01 -2.7164181668701406e+01 -1.4360115708233269e+02 0 0 0
2378 96 2 0.0000000000000000e+00 -4.1657884698201904e+01 -3.1115219117870819e+01 -1.4774138322419208e+02 0 0 0
3412 137 4 0.0000000000000000e+00 -4.3264909630917636e+01 -3.1432045576090225e+01 -1.3673202644842917e+02 0 0 0
726 30 1 0.0000000000000000e+00 -3.6277156652042770e+01 -2.0030740931964846e+01 -1.4600505924276391e+02 0 0 0
598 24 2 0.0000000000000000e+00 -2.6113993738528368e+01 -2.5732976518343236e+01 -1.4912379649629872e+02 0 0 0
709 29 2 0.0000000000000000e+00 -1.2829916962877144e+02 -6.1926850926463048e+00 -1.4930261140062717e+02 0 0 0
1562 63 2 0.0000000000000000e+00 -1.0309852360547873e+02 -1.6483745290476133e+01 -1.4867799021738747e+02 0 0 0
4746 190 4 0.0000000000000000e+00 -9.0853423454829382e+01 -1.6745838169332117e+01 -1.3937220456941517e+02 0 0 0
4745 190 4 0.0000000000000000e+00 -9.5055887649531215e+01 -9.1574297741918667e+00 -1.4376566125529621e+02 0 0 0
731 30 2 0.0000000000000000e+00 -7.6838291449214168e+01 -1.3398119502380705e+01 -1.4187942570026649e+02 0 0 0
732 30 1 0.0000000000000000e+00 -8.4657622105105247e+01 -8.9728912123312750e+00 -1.3721043562524559e+02 0 0 0
730 30 2 0.0000000000000000e+00 -6.9986607945710716e+01 -1.2208106459720444e+01 -1.4945154131384970e+02 0 0 0
2145 86 2 0.0000000000000000e+00 -5.7050928033425471e+01 -1.8251938089392031e+01 -1.4287322107558521e+02 0 0 0
2144 86 1 0.0000000000000000e+00 -4.9000524168489932e+01 -1.3701178503823412e+01 -1.4613477288907757e+02 0 0 0
3425 137 3 0.0000000000000000e+00 -5.8090636494194243e+01 -6.4132941606005636e+00 -1.4672039753936934e+02 0 0 0
3180 128 4 0.0000000000000000e+00 -5.5271408580971190e+01 -9.1509913502998739e+00 -1.3679058535092372e+02 0 0 0
3415 137 4 0.0000000000000000e+00 -3.8947712978473149e+01 -9.5313495298319726e+00 -1.4301946209550687e+02 0 0 0
3414 137 4 0.0000000000000000e+00 -3.1773991864078745e+01 -1.4405350680070242e+01 -1.3770238342001306e+02 0 0 0
710 29 2 0.0000000000000000e+00 -1.2953533012411054e+02 3.0927822653455319e+00 -1.4614653651485895e+02 0 0 0
1565 63 2 0.0000000000000000e+00 -1.1976660641691936e+02 -2.3745098236182383e+00 -1.4107859499158923e+02 0 0 0
2905 117 4 0.0000000000000000e+00 -1.1560583114780437e+02 7.3493384251421219e+00 -1.4378952970926028e+02 0 0 0
2906 117 4 0.0000000000000000e+00 -1.0820493759731804e+02 8.7342437915694282e-01 -1.4602035399337913e+02 0 0 0
2226 90 1 0.0000000000000000e+00 -1.0531887927988001e+02 6.9752135693740831e+00 -1.3840531565364856e+02 0 0 0
4744 190 3 0.0000000000000000e+00 -9.8140288321298186e+01 -7.7709976513209378e-01 -1.3942296830998643e+02 0 0 0
535 22 2 0.0000000000000000e+00 -7.2854328036969690e+01 -8.0646289012106853e-01 -1.3995828128189311e+02 0 0 0
536 22 2 0.0000000000000000e+00 -6.5184735267869115e+01 1.5852687475929046e+00 -1.4744554495918783e+02 0 0 0
2066 83 2 0.0000000000000000e+00 -6.2159158166305595e+01 4.5830622442089854e+00 -1.3817411955657326e+02 0 0 0
3417 137 4 0.0000000000000000e+00 -5.0386269361425661e+01 2.8834092456326648e+00 -1.4714168333435984e+02 0 0 0
3416 137 4 0.0000000000000000e+00 -4.4872012175691097e+01 -2.2988753675894222e+00 -1.4017858388074200e+02 0 0 0
2142 86 2 0.0000000000000000e+00 -3.4990864738989622e+01 -2.0075950622776535e+00 -1.4903423833574399e+02 0 0 0
711 29 2 0.0000000000000000e+00 -1.2557242209282118e+02 1.0360170487327830e+01 -1.4068667684166556e+02 0 0 0
713 29 1 0.0000000000000000e+00 -1.1591466485111320e+02 1.7721798868627111e+01 -1.3685869144381866e+02 0 0 0
712 29 2 0.0000000000000000e+00 -1.2522382190228079e+02 2.0663600254818853e+01 -1.4016052909017421e+02 0 0 0
714 29 2 0.0000000000000000e+00 -1.0623320347549718e+02 1.7830245113767315e+01 -1.3903772198946521e+02 0 0 0
2068 83 2 0.0000000000000000e+00 -8.1254752506313267e+01 8.7203344745946261e+00 -1.4057254298061699e+02 0 0 0
2067 83 2 0.0000000000000000e+00 -7.1365939037442658e+01 9.6391490810919187e+00 -1.3845666060389121e+02 0 0 0
2065 83 2 0.0000000000000000e+00 -5.9576668705856392e+01 1.4380283091212940e+01 -1.4033871963498521e+02 0 0 0
296 12 2 0.0000000000000000e+00 -3.2550246436418085e+01 7.7221944761781325e+00 -1.4299972598849735e+02 0 0 0
4435 178 4 0.0000000000000000e+00 -2.3572314618251710e+01 7.6073439143864832e+00 -1.4823851168122684e+02 0 0 0
297 12 2 0.0000000000000000e+00 -2.9184323577437613e+01 1.7048838912540713e+01 -1.4665070745422844e+02 0 0 0
2565 103 4 0.0000000000000000e+00 -2.0284760218132309e+01 1.8404889550870305e+01 -1.3800710297976971e+02 0 0 0
3924 157 4 0.0000000000000000e+00 -1.0378581847427746e+02 2.6394347825501598e+01 -1.4474506118966323e+02 0 0 0
3925 157 3 0.0000000000000000e+00 -1.1403833632045414e+02 2.4222060335268193e+01 -1.4616416500474111e+02 0 0 0
3923 157 4 0.0000000000000000e+00 -9.4242718214767805e+01 2.6238945708298409e+01 -1.4822397428618717e+02 0 0 0
1386 56 2 0.0000000000000000e+00 -8.6595265919322770e+01 2.5623335388930997e+01 -1.4212633371143323e+02 0 0 0
1385 56 2 0.0000000000000000e+00 -7.7971883966004029e+01 2.3750170766533742e+01 -1.4729409038751439e+02 0 0 0
2956 119 4 0.0000000000000000e+00 -6.1406075993359892e+01 2.6759997310496612e+01 -1.4075227903313964e+02 0 0 0
1115 45 2 0.0000000000000000e+00 -3.5022685715981858e+01 2.4392365372674558e+01 -1.3930628202874394e+02 0 0 0
4431 178 4 0.0000000000000000e+00 -4.1971295867491868e+01 3.4713861673200576e+01 -1.4622140061610210e+02 0 0 0
298 12 2 0.0000000000000000e+00 -2.6651231990406291e+01 2.7009526448205360e+01 -1.4615725593231306e+02 0 0 0
1117 45 2 0.0000000000000000e+00 -1.9993260697007049e+01 3.3714579985370627e+01 -1.3897702197787243e+02 0 0 0
2883 116 4 0.0000000000000000e+00 -1.0858931028440615e+02 -7.6034753758554885e+01 -1.2695651348556486e+02 0 0 0
3671 147 4 0.0000000000000000e+00 -9.5626921085670986e+01 -7.7328896667211822e+01 -1.2169429363791663e+02 0 0 0
3670 147 4 0.0000000000000000e+00 -8.6382268385068528e+01 -7.4558489904994332e+01 -1.2569407170566765e+02 0 0 0
4607 185 3 0.0000000000000000e+00 -2.0009370798755040e+01 -8.0736345999419825e+01 -1.3125122278382307e+02 0 0 0
748 30 2 0.0000000000000000e+00 -1.4866621408985307e+02 -6.8641964472481646e+01 -1.2610529653239645e+02 0 0 0
749 30 2 0.0000000000000000e+00 -1.3844193929633875e+02 -6.8228290034399720e+01 -1.2717806024838293e+02 0 0 0
3074 123 4 0.0000000000000000e+00 -1.2443732778951576e+02 -6.9425259501131450e+01 -1.2208821471304140e+02 0 0 0
3073 123 4 0.0000000000000000e+00 -1.1651270438863634e+02 -6.7471542903287116e+01 -1.2718438599998937e+02 0 0 0
3072 123 4 0.0000000000000000e+00 -1.0921288916305569e+02 -6.4158590788787791e+01 -1.3391694059169009e+02 0 0 0
63 3 1 0.0000000000000000e+00 -8.9533194909614195e+01 -6.4689167860801817e+01 -1.2695989914698188e+02 0 0 0
3669 147 3 0.0000000000000000e+00 -8.1788143249723646e+01 -6.9894607926822871e+01 -1.3358291111421480e+02 0 0 0
62 3 2 0.0000000000000000e+00 -8.0298301187929923e+01 -6.0229115580659609e+01 -1.2609983664414347e+02 0 0 0
3056 123 4 0.0000000000000000e+00 -6.2502630524147406e+01 -6.5031694452001986e+01 -1.3118176811201698e+02 0 0 0
3055 123 4 0.0000000000000000e+00 -5.9935648721453887e+01 -6.7646741410609764e+01 -1.2198847709904599e+02 0 0 0
3224 129 4 0.0000000000000000e+00 -1.1606375891343561e+02 -4.7764571657438815e+01 -1.2611494055669473e+02 0 0 0
3071 123 4 0.0000000000000000e+00 -1.0083025811287177e+02 -5.8771927113612946e+01 -1.3531130580530083e+02 0 0 0
2235 90 2 0.0000000000000000e+00 -1.0604446844998209e+02 -5.2166142936301206e+01 -1.2884563966556192e+02 0 0 0
2248 90 2 0.0000000000000000e+00 -9.1287645324258349e+01 -5.3980845286105136e+01 -1.3225777034166185e+02 0 0 0
2247 90 2 0.0000000000000000e+00 -9.6536015906641552e+01 -4.7283934167458852e+01 -1.2669924092704649e+02 0 0 0
61 3 2 0.0000000000000000e+00 -7.0907820707108939e+01 -5.7208159835650925e+01 -1.2751509212250417e+02 0 0 0
60 3 2 0.0000000000000000e+00 -6.2674604259880134e+01 -5.4820772697255990e+01 -1.3255902778227104e+02 0 0 0
59 3 2 0.0000000000000000e+00 -5.4678744498117510e+01 -5.6390417288722595e+01 -1.2783075807260988e+02 0 0 0
4472 179 4 0.0000000000000000e+00 -4.2509284646559401e+01 -5.0363108352750395e+01 -1.2965772348178149e+02 0 0 0
4474 179 4 0.0000000000000000e+00 -2.7461904453013869e+01 -5.2422122606542160e+01 -1.3158437253760334e+02 0 0 0
2878 116 4 0.0000000000000000e+00 -1.2245500845119719e+02 -4.6520822678052816e+01 -1.3466429425066778e+02 0 0 0
2877 116 4 0.0000000000000000e+00 -1.2503815597525686e+02 -3.9615165550987193e+01 -1.2781082153135320e+02 0 0 0
3223 129 4 0.0000000000000000e+00 -1.1200227350354955e+02 -4.1340892873111954e+01 -1.3314365907880119e+02 0 0 0
2246 90 2 0.0000000000000000e+00 -1.0368329281803338e+02 -4.0170930061741267e+01 -1.2608055141010023e+02 0 0 0
3409 137 4 0.0000000000000000e+00 -6.1204746542049229e+01 -4.2811521035587255e+01 -1.2783828570913464e+02 0 0 0
4471 179 4 0.0000000000000000e+00 -4.9463592352357885e+01 -4.5354896783813295e+01 -1.2418317610159782e+02 0 0 0
3659 147 4 0.0000000000000000e+00 -3.3578395105092646e+01 -4.3797931522312219e+01 -1.2962616148380727e+02 0 0 0
583 24 2 0.0000000000000000e+00 -2.2248908170652989e+01 -3.5476046306111606e+01 -1.2831056988462609e+02 0 0 0
582 24 1 0.0000000000000000e+00 -3.1917680904921109e+01 -3.3696004280169397e+01 -1.2564205682707001e+02 0 0 0
702 29 2 0.0000000000000000e+00 -1.3724251862895358e+02 -2.0871633676607395e+01 -1.2390748071120056e+02 0 0 0
703 29 2 0.0000000000000000e+00 -1.3406119229948945e+02 -2.5751829513317592e+01 -1.3260499597494430e+02 0 0 0
2230 90 2 0.0000000000000000e+00 -1.1958271077533202e+02 -2.5845569195503465e+01 -1.2775671406406229e+02 0 0 0
3220 129 4 0.0000000000000000e+00 -9.6102081443798980e+01 -3.2714584251637028e+01 -1.2866098712935539e+02 0 0 0
4748 190 4 0.0000000000000000e+00 -8.8039397032804871e+01 -2.2297714871036497e+01 -1.2756476056856187e+02 0 0 0
4332 174 3 0.0000000000000000e+00 -6.1057695901009488e+01 -3.1781217655628939e+01 -1.2332677057612486e+02 0 0 0
4331 174 4 0.0000000000000000e+00 -6.9841918900168110e+01 -3.0922655541728684e+01 -1.2738585637368355e+02 0 0 0
2381 96 2 0.0000000000000000e+00 -6.3913196539262088e+01 -1.9634662733298352e+01 -1.3005593417443185e+02 0 0 0
2382 96 1 0.0000000000000000e+00 -7.0012304913886268e+01 -2.1494623630314429e+01 -1.2187806934510824e+02 0 0 0
3413 137 3 0.0000000000000000e+00 -3.6614889888874067e+01 -2.3266091808330398e+01 -1.3488690376661637e+02 0 0 0
3178 128 4 0.0000000000000000e+00 -4.4392507244250979e+01 -2.4620621425126210e+01 -1.2951025794303547e+02 0 0 0
3177 128 4 0.0000000000000000e+00 -4.5321081347079989e+01 -3.2856295755864316e+01 -1.2349677202956366e+02 0 0 0
581 24 2 0.0000000000000000e+00 -3.6032537663690036e+01 -2.5285943986714710e+01 -1.2209097494968904e+02 0 0 0
2229 90 2 0.0000000000000000e+00 -1.1781064935161271e+02 -1.6035886301331278e+01 -1.3062115231885477e+02 0 0 0
2228 90 2 0.0000000000000000e+00 -1.0942357459588806e+02 -1.0380957485538451e+01 -1.2891172797830490e+02 0 0 0
2242 90 2 0.0000000000000000e+00 -1.0169679424203534e+02 -1.6821599565932484e+01 -1.3482161599011746e+02 0 0 0
2243 90 2 0.0000000000000000e+00 -9.8083408701247379e+01 -1.7652727296325764e+01 -1.2584213262455100e+02 0 0 0
733 30 2 0.0000000000000000e+00 -9.3160559907709143e+01 -9.5947844166370082e+00 -1.3211467348233160e+02 0 0 0
734 30 2 0.0000000000000000e+00 -9.9420044156033867e+01 -7.8214992810828194e+00 -1.2423302434143842e+02 0 0 0
4747 190 4 0.0000000000000000e+00 -8.1974694262497891e+01 -1.9477763396090850e+01 -1.3500098889393348e+02 0 0 0
4750 190 3 0.0000000000000000e+00 -8.4639378131271471e+01 -1.2246404320665519e+01 -1.2670930307075643e+02 0 0 0
3181 128 4 0.0000000000000000e+00 -6.1209199465220010e+01 -8.6426360781682838e+00 -1.2938938977169764e+02 0 0 0
3179 128 4 0.0000000000000000e+00 -4.9066024518105444e+01 -1.6814810378644058e+01 -1.3426122528653826e+02 0 0 0
2561 103 4 0.0000000000000000e+00 -3.3105625762091002e+01 -1.0354576272928243e+01 -1.2528384080000578e+02 0 0 0
2560 103 4 0.0000000000000000e+00 -2.3972724775908556e+01 -7.2670615906687690e+00 -1.2249541152632867e+02 0 0 0
1566 63 2 0.0000000000000000e+00 -1.2337518970036348e+02 -2.0221896599464713e+00 -1.3156514991468660e+02 0 0 0
1567 63 2 0.0000000000000000e+00 -1.2109423834774682e+02 4.0352984598721600e+00 -1.2405999186567843e+02 0 0 0
736 30 2 0.0000000000000000e+00 -1.1509931117267165e+02 -5.0351397118270036e+00 -1.2173810477072949e+02 0 0 0
2227 90 2 0.0000000000000000e+00 -1.0760927826512351e+02 -1.0967732911039632e+00 -1.3215109986158109e+02 0 0 0
2069 83 1 0.0000000000000000e+00 -8.7818890401316835e+01 3.7777113999642089e+00 -1.3528174646614303e+02 0 0 0
4743 190 4 0.0000000000000000e+00 -9.8339243729705018e+01 4.5992905821734613e+00 -1.3071951354927077e+02 0 0 0
2070 83 2 0.0000000000000000e+00 -8.9406247916770454e+01 -1.2506783074495489e+00 -1.2681853442977450e+02 0 0 0
534 22 2 0.0000000000000000e+00 -7.5676571465647228e+01 -4.0690979244842431e+00 -1.3115170362222290e+02 0 0 0
533 22 2 0.0000000000000000e+00 -7.2824969257310102e+01 -2.1091950271964239e+00 -1.2211515471282861e+02 0 0 0
1774 71 2 0.0000000000000000e+00 -6.6726825126295395e+01 4.9201075285005844e+00 -1.2809231681543491e+02 0 0 0
1773 71 2 0.0000000000000000e+00 -5.9153855866107037e+01 8.0608072598329938e-01 -1.2350995249948916e+02 0 0 0
2562 103 4 0.0000000000000000e+00 -3.4137236245756391e+01 2.2404414981207935e-01 -1.2440149787234371e+02 0 0 0
2559 103 4 0.0000000000000000e+00 -1.9690942749252795e+01 1.5499175950144419e+00 -1.2439564225514951e+02 0 0 0
4477 180 4 0.0000000000000000e+00 -1.0285296855982574e+02 1.2744020007833878e+01 -1.2949790667655077e+02 0 0 0
4478 180 4 0.0000000000000000e+00 -1.0405546136779371e+02 2.1147033424454456e+01 -1.2390759029961744e+02 0 0 0
1568 63 2 0.0000000000000000e+00 -1.1360224075199915e+02 1.0130229680460332e+01 -1.2371583281855887e+02 0 0 0
4476 180 3 0.0000000000000000e+00 -9.2971923932385721e+01 1.3269712826005724e+01 -1.3202157705523729e+02 0 0 0
2954 119 4 0.0000000000000000e+00 -7.5691108710168791e+01 1.9152364555430012e+01 -1.2807787244928591e+02 0 0 0
2953 119 4 0.0000000000000000e+00 -8.2019063885436921e+01 1.4835788963945722e+01 -1.2246038069257276e+02 0 0 0
1775 71 1 0.0000000000000000e+00 -6.3754978618072727e+01 1.4056832690720691e+01 -1.3126844248318955e+02 0 0 0
1772 71 2 0.0000000000000000e+00 -5.4477990553935150e+01 9.8133917615625883e+00 -1.2582794616065995e+02 0 0 0
2064 83 2 0.0000000000000000e+00 -5.4626149296306671e+01 2.1023763883248240e+01 -1.3428379826180324e+02 0 0 0
295 12 2 0.0000000000000000e+00 -3.7671412511712795e+01 9.3362573080401035e+00 -1.3410586155238636e+02 0 0 0
294 12 1 0.0000000000000000e+00 -3.8893501683565262e+01 1.7955716629392480e+01 -1.2789094288866764e+02 0 0 0
2563 103 3 0.0000000000000000e+00 -3.0954218846250676e+01 1.0020790906138719e+01 -1.2681103325037046e+02 0 0 0
2564 103 4 0.0000000000000000e+00 -2.9832500442313055e+01 1.6594074619125326e+01 -1.3465351884422589e+02 0 0 0
715 29 2 0.0000000000000000e+00 -1.0507529640319507e+02 2.5573854084802537e+01 -1.3279093527649857e+02 0 0 0
716 29 2 0.0000000000000000e+00 -1.0423060442792520e+02 3.4396913145681914e+01 -1.2768291856723144e+02 0 0 0
545 22 2 0.0000000000000000e+00 -9.0444263209425273e+01 3.3472291120088677e+01 -1.2227580441715449e+02 0 0 0
1387 56 2 0.0000000000000000e+00 -8.9693293566349539e+01 3.2686058305070055e+01 -1.3567206546395411e+02 0 0 0
4492 180 4 0.0000000000000000e+00 -9.3160923526274658e+01 2.4253472261849758e+01 -1.2201170458313031e+02 0 0 0
4494 180 3 0.0000000000000000e+00 -8.0277462026022363e+01 2.9951621368794019e+01 -1.3529197285007527e+02 0 0 0
4493 180 4 0.0000000000000000e+00 -8.7055886325512347e+01 2.4192640864771267e+01 -1.3028613551610459e+02 0 0 0
2955 119 4 0.0000000000000000e+00 -6.7501452708466516e+01 2.2833198906565666e+01 -1.3353837827286841e+02 0 0 0
4500 180 3 0.0000000000000000e+00 -6.0820687560384989e+01 2.1817406442114670e+01 -1.2416427464898101e+02 0 0 0
2062 83 2 0.0000000000000000e+00 -6.3216253803331185e+01 3.0678703303556134e+01 -1.2578380620504004e+02 0 0 0
2063 83 1 0.0000000000000000e+00 -5.4887947337194127e+01 3.0311245637132775e+01 -1.3190461853721436e+02 0 0 0
1114 45 2 0.0000000000000000e+00 -3.9329922371697364e+01 2.7772241136652411e+01 -1.3141303116438448e+02 0 0 0
1116 45 2 0.0000000000000000e+00 -2.6622197572526840e+01 2.7587210329920861e+01 -1.3431349569438029e+02 0 0 0
1473 59 2 0.0000000000000000e+00 -6.6105149116623195e+01 -1.1576324016919078e+02 -1.0858903503102852e+02 0 0 0
1474 59 2 0.0000000000000000e+00 -5.8747711813421773e+01 -1.0867410788644921e+02 -1.0731979797280879e+02 0 0 0
1903 77 2 0.0000000000000000e+00 -1.0907692356747238e+02 -9.7846029505769962e+01 -1.0992100899689551e+02 0 0 0
1904 77 2 0.0000000000000000e+00 -1.0853891783927072e+02 -8.9674745196056961e+01 -1.1616383334278834e+02 0 0 0
3052 123 4 0.0000000000000000e+00 -5.2759852500309549e+01 -9.4799518883473112e+01 -1.1544933642852907e+02 0 0 0
3051 123 3 0.0000000000000000e+00 -4.7790522471085872e+01 -1.0028178126153873e+02 -1.0802175910023627e+02 0 0 0
4604 185 4 0.0000000000000000e+00 -2.7174033348252976e+01 -9.1669236099109099e+01 -1.1323722657368434e+02 0 0 0
1905 77 2 0.0000000000000000e+00 -1.1212315827281833e+02 -8.1646281582147225e+01 -1.1150361217332588e+02 0 0 0