LAMMPS data file via write_data, version 5 Jun 2019, timestep = 350000000

5000 atoms
4 atom types
5255 bonds
3 bond types
4600 angles
2 angle types

-2.5000000000000000e+02 2.5000000000000000e+02 xlo xhi
-2.5000000000000000e+02 2.5000000000000000e+02 ylo yhi
-2.5000000000000000e+02 2.5000000000000000e+02 zlo zhi

Masses

1 1000
2 1000
3 1000
4 1000

Pair Coeffs # lj/cut

1 0.3 10
2 0.3 10
3 0.3 10
4 0.3 10

Bond Coeffs # harmonic

1 3 10
2 3 10
3 1.8 11.22

Angle Coeffs # cosine

1 2
2 2

Atoms # full

3075 123 3 0.0000000000000000e+00 -6.6494937480542575e+01 -5.1749425079706896e+01 -1.5566486310273783e+02 0 0 0
1376 56 1 0.0000000000000000e+00 -5.7100198261120134e+01 -4.5984497735663368e+01 -1.5338645611793518e+02 0 0 0
3074 123 4 0.0000000000000000e+00 -6.3946466871014756e+01 -4.8272215301027359e+01 -1.4677288943110693e+02 0 0 0
1377 56 2 0.0000000000000000e+00 -5.4376741960512881e+01 -3.9182660511830015e+01 -1.4650677269417537e+02 0 0 0
1378 56 2 0.0000000000000000e+00 -4.7751345948944220e+01 -3.2353309455757405e+01 -1.4286931791259281e+02 0 0 0
1177 48 2 0.0000000000000000e+00 -4.5778702406550124e+01 -9.4897641003217093e+00 -1.4357205557390827e+02 0 0 0
1176 48 1 0.0000000000000000e+00 -5.1178829748188548e+01 -2.3250245364064694e+00 -1.3987546952844724e+02 0 0 0
3180 128 4 0.0000000000000000e+00 -7.9162212369952741e+01 2.4168536287562585e+01 -1.4340893803365884e+02 0 0 0
532 22 1 0.0000000000000000e+00 -7.0475178571606136e+01 3.3897088136488733e+01 -1.4862109866763760e+02 0 0 0
3179 128 4 0.0000000000000000e+00 -7.8460900891912388e+01 3.3934998189168645e+01 -1.4224528870697014e+02 0 0 0
4458 179 4 0.0000000000000000e+00 -5.4701902009022817e+01 3.1186231836353834e+01 -1.5048596279714155e+02 0 0 0
4457 179 3 0.0000000000000000e+00 -6.1738848317551636e+01 2.7934856997921624e+01 -1.4428878404220222e+02 0 0 0
4459 179 4 0.0000000000000000e+00 -4.4821088676331840e+01 3.2190086525679376e+01 -1.5052955381575515e+02 0 0 0
3073 123 4 0.0000000000000000e+00 -6.0075302515321852e+01 -4.4641563878060232e+01 -1.3770735250912574e+02 0 0 0
3072 123 4 0.0000000000000000e+00 -5.3922896231381792e+01 -3.8276896202008231e+01 -1.3402369726920713e+02 0 0 0
2020 81 2 0.0000000000000000e+00 -5.5723226322608888e+01 -2.2819791368193201e+01 -1.2818622199553832e+02 0 0 0
3071 123 4 0.0000000000000000e+00 -4.9043384409859264e+01 -3.0366606463563553e+01 -1.3098227669331010e+02 0 0 0
3070 123 4 0.0000000000000000e+00 -3.9423139993702456e+01 -2.7483497258276699e+01 -1.2912714066883447e+02 0 0 0
2021 81 2 0.0000000000000000e+00 -5.3310149426759452e+01 -1.3314212038859413e+01 -1.3062049164575191e+02 0 0 0
2022 81 2 0.0000000000000000e+00 -4.3637814759795340e+01 -9.2226057815952949e+00 -1.2976208695329555e+02 0 0 0
3185 128 4 0.0000000000000000e+00 -5.9174273527369898e+01 9.1081699249706238e-01 -1.3388293004793226e+02 0 0 0
3184 128 4 0.0000000000000000e+00 -5.1433461796757527e+01 4.5244630600150133e+00 -1.2779003678570250e+02 0 0 0
1383 56 2 0.0000000000000000e+00 -4.1004633185799790e+01 6.4165453408764499e+00 -1.3190637305289462e+02 0 0 0
4067 163 4 0.0000000000000000e+00 -1.2099320444782673e+02 1.2942658199533305e+01 -1.2932902108415158e+02 0 0 0
3181 128 4 0.0000000000000000e+00 -7.3634486632829635e+01 1.8972012609771859e+01 -1.3683218750154759e+02 0 0 0
3182 128 3 0.0000000000000000e+00 -6.3842949664246923e+01 1.5455170796948357e+01 -1.3637046133559573e+02 0 0 0
3183 128 4 0.0000000000000000e+00 -5.4726414903992584e+01 1.1340943579630425e+01 -1.3442360780366215e+02 0 0 0
750 30 1 0.0000000000000000e+00 -5.5865403812940009e+01 2.0825868174391005e+01 -1.3101694564106614e+02 0 0 0
1384 56 2 0.0000000000000000e+00 -4.2845482127236814e+01 1.6124593367087638e+01 -1.3067860244768028e+02 0 0 0
4066 163 4 0.0000000000000000e+00 -1.1710199295653058e+02 2.2184202749946721e+01 -1.3145273548617169e+02 0 0 0
4065 163 4 0.0000000000000000e+00 -1.0958245683657459e+02 2.9056916455408654e+01 -1.3253815625339217e+02 0 0 0
3176 128 3 0.0000000000000000e+00 -8.8248522493208810e+01 2.1071990713449551e+01 -1.2741417087548838e+02 0 0 0
3177 128 4 0.0000000000000000e+00 -8.9454380006991912e+01 3.0921725724796865e+01 -1.2890068083456504e+02 0 0 0
2007 81 1 0.0000000000000000e+00 -7.7420388785504713e+01 2.1362580447916166e+01 -1.2634768269625485e+02 0 0 0
4455 179 4 0.0000000000000000e+00 -7.3048026809741913e+01 3.3000214458754449e+01 -1.2919598280610612e+02 0 0 0
4456 179 4 0.0000000000000000e+00 -6.7460722490547440e+01 2.8702056967411437e+01 -1.3646148633126123e+02 0 0 0
749 30 2 0.0000000000000000e+00 -6.3395749327766652e+01 2.6695019310195779e+01 -1.2715657270618769e+02 0 0 0
747 30 2 0.0000000000000000e+00 -5.4188274879968219e+01 3.4120597818472753e+01 -1.2663546022466713e+02 0 0 0
1385 56 2 0.0000000000000000e+00 -4.5735102127447298e+01 2.5330995013289492e+01 -1.3268369438568277e+02 0 0 0
2018 81 2 0.0000000000000000e+00 -5.6851137781495332e+01 -3.4923631870437319e+01 -1.1310704574298563e+02 0 0 0
2019 81 1 0.0000000000000000e+00 -5.7152182373329055e+01 -3.0951430906335290e+01 -1.2244972201130679e+02 0 0 0
2389 96 2 0.0000000000000000e+00 -4.2891578355189843e+01 -2.0224811977737247e+01 -1.2012862282847553e+02 0 0 0
2390 96 2 0.0000000000000000e+00 -5.1631566001579756e+01 -2.2817969153462659e+01 -1.1601278067900114e+02 0 0 0
948 38 2 0.0000000000000000e+00 -1.0954646093784936e+02 -1.5997163098244668e+01 -1.1261792004586650e+02 0 0 0
947 38 2 0.0000000000000000e+00 -1.0721102590077909e+02 -6.1860590190677929e+00 -1.1186724753293727e+02 0 0 0
1283 52 2 0.0000000000000000e+00 -1.1349446611445489e+02 -9.0313542298894406e-02 -1.1949957925918105e+02 0 0 0
1284 52 2 0.0000000000000000e+00 -1.0641688974368414e+02 5.1199405848392372e+00 -1.2479657935053180e+02 0 0 0
2009 81 2 0.0000000000000000e+00 -7.3403215912358633e+01 5.3886698552421768e+00 -1.1672550960441495e+02 0 0 0
3186 128 4 0.0000000000000000e+00 -5.8359941522807631e+01 -2.1839296609207319e+00 -1.2450346246504000e+02 0 0 0
3189 128 4 0.0000000000000000e+00 -5.3523211371527502e+01 4.3662140933518057e+00 -1.1225977600133461e+02 0 0 0
3187 128 4 0.0000000000000000e+00 -6.0838992181968436e+01 7.0588592902242118e+00 -1.2193344677081163e+02 0 0 0
3190 128 4 0.0000000000000000e+00 -4.8158958925892840e+01 -4.6178144685651201e+00 -1.1419621842337023e+02 0 0 0
3191 128 4 0.0000000000000000e+00 -4.5090148531556451e+01 2.9770527140625673e+00 -1.1972800201648928e+02 0 0 0
4068 163 4 0.0000000000000000e+00 -1.2464879008801066e+02 7.7609701206062773e+00 -1.2092456996630109e+02 0 0 0
1285 52 2 0.0000000000000000e+00 -1.1123983998348615e+02 1.4039085566039033e+01 -1.2493906076984128e+02 0 0 0
2008 81 2 0.0000000000000000e+00 -7.2966672740222336e+01 1.3170595671041440e+01 -1.2265920362371989e+02 0 0 0
2236 90 2 0.0000000000000000e+00 -7.2978529086680865e+01 1.6073021642616606e+01 -1.1308808892761709e+02 0 0 0
3188 128 3 0.0000000000000000e+00 -5.8741845962887631e+01 1.2852660565173073e+01 -1.1400510611086152e+02 0 0 0
2237 90 2 0.0000000000000000e+00 -6.4520822806883743e+01 2.0847470167490815e+01 -1.1609758029296911e+02 0 0 0
1286 52 2 0.0000000000000000e+00 -1.1430914190995271e+02 2.2347154794854330e+01 -1.2019083023968989e+02 0 0 0
1287 52 2 0.0000000000000000e+00 -1.1341579623943169e+02 3.2311299488686650e+01 -1.2062923331452178e+02 0 0 0
4060 163 4 0.0000000000000000e+00 -9.4061069583302910e+01 2.7516040458789956e+01 -1.1707649813327126e+02 0 0 0
2006 81 2 0.0000000000000000e+00 -8.2112737280298148e+01 2.8734850506392906e+01 -1.2050840455904320e+02 0 0 0
4454 179 4 0.0000000000000000e+00 -7.0479818773805277e+01 3.2792176763774592e+01 -1.1986320139278484e+02 0 0 0
2005 81 2 0.0000000000000000e+00 -7.7735071937393116e+01 3.2973382735740643e+01 -1.1252081935477837e+02 0 0 0
2238 90 1 0.0000000000000000e+00 -5.7618281119371154e+01 2.7636403989134720e+01 -1.1883432229690771e+02 0 0 0
2239 90 2 0.0000000000000000e+00 -4.8228064240054572e+01 2.8435913904152407e+01 -1.1593425616889806e+02 0 0 0
2240 90 2 0.0000000000000000e+00 -4.0827669653850371e+01 3.4179079261289687e+01 -1.2027660582463807e+02 0 0 0
3277 132 4 0.0000000000000000e+00 -6.4821200135113401e+01 -6.5510945767519374e+01 -9.8377256223560451e+01 0 0 0
3054 123 4 0.0000000000000000e+00 -4.1134524671757049e+01 -6.4862277846527391e+01 -1.0881810446600188e+02 0 0 0
3276 132 3 0.0000000000000000e+00 -6.3220081364273192e+01 -5.8279727240126242e+01 -1.0576599228332118e+02 0 0 0
2069 83 1 0.0000000000000000e+00 -5.8993261712130952e+01 -4.9303255393127380e+01 -1.0070013510428993e+02 0 0 0
2068 83 2 0.0000000000000000e+00 -5.4673278367330546e+01 -5.8132769005904628e+01 -9.7320527543106692e+01 0 0 0
3056 123 4 0.0000000000000000e+00 -4.0609720361427222e+01 -5.2574701977178030e+01 -1.1097637096380487e+02 0 0 0
3055 123 4 0.0000000000000000e+00 -4.6140779730168930e+01 -5.7273928454173443e+01 -1.0386279434002219e+02 0 0 0
1278 52 2 0.0000000000000000e+00 -1.0756953149372158e+02 -3.6150914606470870e+01 -1.0217535071761320e+02 0 0 0
2070 83 2 0.0000000000000000e+00 -6.4924122355266277e+01 -4.1681647288875212e+01 -1.0290586732844220e+02 0 0 0
2017 81 2 0.0000000000000000e+00 -5.1935043002997148e+01 -3.7670454939405182e+01 -1.0415517288808486e+02 0 0 0
4888 196 3 0.0000000000000000e+00 -3.9812347253202859e+01 -3.3686038019068199e+01 -1.0914206474076150e+02 0 0 0
1279 52 2 0.0000000000000000e+00 -1.1487518730312229e+02 -3.0404093374283057e+01 -1.0744625684412341e+02 0 0 0
1280 52 2 0.0000000000000000e+00 -1.1894048414127030e+02 -2.1148238947605076e+01 -1.1054586381511844e+02 0 0 0
2054 83 2 0.0000000000000000e+00 -1.2004145056888920e+02 -2.5446827630001749e+01 -9.8212522135873570e+01 0 0 0
949 38 2 0.0000000000000000e+00 -1.0959329590091886e+02 -2.1094721835501012e+01 -1.0389951140797858e+02 0 0 0
2058 83 2 0.0000000000000000e+00 -8.4559785598220628e+01 -2.3736440178667962e+01 -9.8573731591607128e+01 0 0 0
2072 83 2 0.0000000000000000e+00 -6.9928579944025444e+01 -2.2385267742629402e+01 -1.0565526285990038e+02 0 0 0
2391 96 2 0.0000000000000000e+00 -5.7763506104191954e+01 -2.3298730663387072e+01 -1.0764107412744517e+02 0 0 0
2071 83 2 0.0000000000000000e+00 -6.6023874993110468e+01 -3.1664469266195830e+01 -1.0423393798657678e+02 0 0 0
2392 96 2 0.0000000000000000e+00 -6.2529099161342302e+01 -2.0223261715736836e+01 -9.9087676751676909e+01 0 0 0
2016 81 2 0.0000000000000000e+00 -4.7968515116868502e+01 -3.0657353857564853e+01 -9.8943960777013899e+01 0 0 0
4890 196 4 0.0000000000000000e+00 -4.7715990715636714e+01 -2.0966499976139406e+01 -1.0593645047308121e+02 0 0 0
2052 83 2 0.0000000000000000e+00 -1.2511464400467999e+02 -8.1028099814230892e+00 -1.0312508063657241e+02 0 0 0
2053 83 2 0.0000000000000000e+00 -1.2465769362403935e+02 -1.8101617584041257e+01 -1.0291345726204446e+02 0 0 0
1281 52 2 0.0000000000000000e+00 -1.1752370077176302e+02 -1.1907856479627402e+01 -1.0706469616579278e+02 0 0 0
4826 194 3 0.0000000000000000e+00 -1.0042560858277881e+02 -9.2215137868739365e+00 -9.7815871138785511e+01 0 0 0
2075 83 1 0.0000000000000000e+00 -9.1882103878579287e+01 -7.6764590073526797e+00 -1.0532264042898392e+02 0 0 0
2074 83 2 0.0000000000000000e+00 -8.2130029175790753e+01 -1.0523425021429683e+01 -1.0639095218093460e+02 0 0 0
2073 83 2 0.0000000000000000e+00 -7.2444870604634559e+01 -1.2928287562824522e+01 -1.0908889857744019e+02 0 0 0
2011 81 2 0.0000000000000000e+00 -7.2084816975315320e+01 -7.0677810371585066e+00 -1.0167143962246581e+02 0 0 0
4891 196 4 0.0000000000000000e+00 -5.1913054417404368e+01 -1.1817330054819221e+01 -1.0829879706348991e+02 0 0 0
2386 96 2 0.0000000000000000e+00 -3.9480362188043010e+01 -9.9049999591064495e+00 -1.0177051680774271e+02 0 0 0
1282 52 1 0.0000000000000000e+00 -1.1633684186099666e+02 -2.2050636113606781e+00 -1.0979538954786831e+02 0 0 0
5000 200 3 0.0000000000000000e+00 -1.1624877632710079e+02 -5.0848152205071830e+00 -9.8245665847270629e+01 0 0 0
2051 83 1 0.0000000000000000e+00 -1.2336497362214666e+02 1.3263578633994619e+00 -1.0136149668439435e+02 0 0 0
946 38 2 0.0000000000000000e+00 -1.0855403134935973e+02 -1.9491845149164650e+00 -1.0291394867625878e+02 0 0 0
945 38 2 0.0000000000000000e+00 -1.0599629084113423e+02 6.2405355805477809e+00 -9.7530932725759456e+01 0 0 0
2010 81 2 0.0000000000000000e+00 -7.1511026112870383e+01 -1.7719681582862545e+00 -1.1021319347140692e+02 0 0 0
4892 196 4 0.0000000000000000e+00 -5.0479964523906879e+01 -2.1391957354602766e+00 -1.0450979748819296e+02 0 0 0
4893 196 4 0.0000000000000000e+00 -5.1239250213843960e+01 5.8541815919932283e+00 -9.8306329346846752e+01 0 0 0
2385 96 2 0.0000000000000000e+00 -3.9670209893879914e+01 -4.4225676698750008e-02 -1.0083595593352071e+02 0 0 0
4069 163 3 0.0000000000000000e+00 -1.2375265426447848e+02 7.6041651148127460e+00 -1.1037535961600329e+02 0 0 0
4070 163 4 0.0000000000000000e+00 -1.2516873350783339e+02 1.2741522652369346e+01 -1.0239231097787700e+02 0 0 0
4058 163 4 0.0000000000000000e+00 -9.6622978301152429e+01 1.9300023588827919e+01 -1.0040006489713807e+02 0 0 0
944 38 1 0.0000000000000000e+00 -9.6359388207603516e+01 9.8361662256889044e+00 -9.7321493347542443e+01 0 0 0
1407 57 1 0.0000000000000000e+00 -5.8837123979473105e+01 2.0675064928465932e+01 -1.0562698820733806e+02 0 0 0
1408 57 2 0.0000000000000000e+00 -5.0287773525373829e+01 1.7298816569279133e+01 -1.0750659453713732e+02 0 0 0
1409 57 2 0.0000000000000000e+00 -4.4613449866764753e+01 9.5808204959516150e+00 -1.0522800928091134e+02 0 0 0
1410 57 2 0.0000000000000000e+00 -3.9692099900512176e+01 1.8932010551985446e+01 -1.0490383557656575e+02 0 0 0
2001 81 1 0.0000000000000000e+00 -1.1205509284205121e+02 2.5127165531959893e+01 -1.0097137927559619e+02 0 0 0
737 30 2 0.0000000000000000e+00 -1.0799148370168660e+02 3.3454493466679118e+01 -1.0760565450985186e+02 0 0 0
2002 81 2 0.0000000000000000e+00 -1.0287057677882683e+02 2.9166723138226594e+01 -1.0090382838507891e+02 0 0 0
2003 81 2 0.0000000000000000e+00 -9.4815553350276417e+01 3.4375439611733057e+01 -1.0322896420001349e+02 0 0 0
4059 163 4 0.0000000000000000e+00 -9.2854675498423248e+01 2.4448322283837197e+01 -1.0820201178521360e+02 0 0 0
2234 90 2 0.0000000000000000e+00 -8.3704365617034853e+01 2.7194004279609423e+01 -1.0192833123269048e+02 0 0 0
4453 179 4 0.0000000000000000e+00 -6.8708549254331032e+01 2.9313830817674432e+01 -1.1045329114390590e+02 0 0 0
2235 90 2 0.0000000000000000e+00 -7.8981063925093238e+01 2.3067003294674834e+01 -1.0920324044208655e+02 0 0 0
4452 179 4 0.0000000000000000e+00 -7.1176360938374657e+01 2.9235221656446750e+01 -1.0057848014998419e+02 0 0 0
1406 57 2 0.0000000000000000e+00 -5.9188532826525623e+01 2.9948200673429568e+01 -1.0229979086413339e+02 0 0 0
3349 134 4 0.0000000000000000e+00 -4.8489098574867114e+01 3.2384340525996379e+01 -1.0310849843717891e+02 0 0 0
3279 132 4 0.0000000000000000e+00 -5.4421272921553303e+01 -7.6931168485661914e+01 -8.9369665415632255e+01 0 0 0
3280 132 4 0.0000000000000000e+00 -4.5961351770075709e+01 -8.1858914666910835e+01 -9.0166578312515995e+01 0 0 0
3173 127 4 0.0000000000000000e+00 -9.9713954503816637e+01 -7.3208710602156870e+01 -8.6321353965979526e+01 0 0 0
3278 132 4 0.0000000000000000e+00 -6.2760268452264995e+01 -7.1009796523935805e+01 -9.0007740758231947e+01 0 0 0
4387 176 4 0.0000000000000000e+00 -4.5913111261598203e+01 -6.8994394951972595e+01 -8.8873916557411164e+01 0 0 0
1276 52 1 0.0000000000000000e+00 -1.0192479026151105e+02 -5.0834690211711468e+01 -9.1431055627222605e+01 0 0 0
265 11 2 0.0000000000000000e+00 -5.1203063260943459e+01 -5.9103050313464927e+01 -8.5364156126516775e+01 0 0 0
266 11 2 0.0000000000000000e+00 -4.4338153004746118e+01 -5.1460794779231541e+01 -8.7352807673736336e+01 0 0 0
2067 83 2 0.0000000000000000e+00 -5.1099378091127505e+01 -4.8550759447282609e+01 -9.5203868797538576e+01 0 0 0
2900 116 3 0.0000000000000000e+00 -1.0900928535424904e+02 -4.4127369992797597e+01 -8.5174250614052994e+01 0 0 0
1277 52 2 0.0000000000000000e+00 -1.0217252950551186e+02 -4.1308613324120415e+01 -9.5749761704786835e+01 0 0 0
4200 168 3 0.0000000000000000e+00 -8.8997495486460451e+01 -3.7091191157456379e+01 -8.7191522952363144e+01 0 0 0
2066 83 2 0.0000000000000000e+00 -5.0176290974860379e+01 -3.9243814139512310e+01 -8.9782348062006747e+01 0 0 0
2055 83 2 0.0000000000000000e+00 -1.1172789069606823e+02 -2.9034229202046014e+01 -9.3819384659272359e+01 0 0 0
4051 163 3 0.0000000000000000e+00 -1.0975497652812881e+02 -2.0864710426967822e+01 -8.4250816728805276e+01 0 0 0
2056 83 2 0.0000000000000000e+00 -1.0209320280090466e+02 -3.0398388987320551e+01 -9.3649330500520733e+01 0 0 0
2057 83 1 0.0000000000000000e+00 -9.1901160746983962e+01 -2.9138997656154906e+01 -9.4050234149665087e+01 0 0 0
4829 194 4 0.0000000000000000e+00 -8.4368948370618597e+01 -2.2534716142551236e+01 -8.8285914828802333e+01 0 0 0
4830 194 4 0.0000000000000000e+00 -7.6674297239260483e+01 -2.8337241764843110e+01 -8.4787915690907496e+01 0 0 0
2393 96 2 0.0000000000000000e+00 -6.2742489896587358e+01 -2.3832683588072118e+01 -8.9503557183305091e+01 0 0 0
2394 96 1 0.0000000000000000e+00 -6.4695753643862417e+01 -3.2674079034717053e+01 -8.5343872160685223e+01 0 0 0
2015 81 2 0.0000000000000000e+00 -4.4359148182415950e+01 -2.1217946292802431e+01 -9.5239938381353198e+01 0 0 0
2065 83 2 0.0000000000000000e+00 -4.5375774464159150e+01 -3.1679664922373252e+01 -8.5178413252403388e+01 0 0 0
2064 83 2 0.0000000000000000e+00 -4.9594813718277706e+01 -2.2304785755541303e+01 -8.4346169822693042e+01 0 0 0
4054 163 4 0.0000000000000000e+00 -1.1961423844705392e+02 -6.2650230510497371e+00 -8.8000477304563020e+01 0 0 0
950 38 1 0.0000000000000000e+00 -1.1412691835969217e+02 -1.8146718587112332e+01 -9.4725370324409354e+01 0 0 0
4827 194 4 0.0000000000000000e+00 -1.0256987721213025e+02 -1.7673279207215050e+01 -9.2911783326975424e+01 0 0 0
4828 194 4 0.0000000000000000e+00 -9.2830208921407674e+01 -1.8177312202929233e+01 -9.1153081487582071e+01 0 0 0
2059 83 2 0.0000000000000000e+00 -7.8082246437760460e+01 -1.6851155351619941e+01 -9.5492135664110293e+01 0 0 0
2060 83 2 0.0000000000000000e+00 -7.2173999978559806e+01 -1.1759092363009479e+01 -8.9610333897043944e+01 0 0 0
2012 81 2 0.0000000000000000e+00 -6.3757067734106798e+01 -6.7370704719742935e+00 -9.5761910687205827e+01 0 0 0
2014 81 2 0.0000000000000000e+00 -4.8609243473549341e+01 -1.2109874095505486e+01 -9.5673197876953267e+01 0 0 0
3206 129 4 0.0000000000000000e+00 -3.9913269036780569e+01 -1.2686786315190796e+01 -8.8297193670089683e+01 0 0 0
1923 77 2 0.0000000000000000e+00 -1.3219866044323265e+02 -6.0178342543036880e+00 -8.7091474204766641e+01 0 0 0
1922 77 2 0.0000000000000000e+00 -1.3019133957136529e+02 2.5655723875006808e+00 -9.2853195823170452e+01 0 0 0
4055 163 4 0.0000000000000000e+00 -1.1348163144744913e+02 1.8965684858780594e+00 -9.0235581918656962e+01 0 0 0
4999 200 4 0.0000000000000000e+00 -1.0831776129406605e+02 -5.6062670060969824e+00 -9.2352171421934599e+01 0 0 0
4998 200 4 0.0000000000000000e+00 -1.0062972643637130e+02 -5.6875218962468592e+00 -8.5549500141000010e+01 0 0 0
703 29 2 0.0000000000000000e+00 -8.5736795479398140e+01 6.1135555308593110e+00 -9.4784582263215924e+01 0 0 0
702 29 2 0.0000000000000000e+00 -8.2745959655822887e+01 -2.7557597947305248e+00 -9.1313313066624104e+01 0 0 0
2061 83 2 0.0000000000000000e+00 -7.0461987897124985e+01 -2.3559215902624566e+00 -8.5844258431060950e+01 0 0 0
2013 81 1 0.0000000000000000e+00 -5.4701136495033140e+01 -5.5378733274818899e+00 -9.1586283374390860e+01 0 0 0
4071 163 4 0.0000000000000000e+00 -1.2807966113422910e+02 2.0214945899423668e+01 -9.6159143823864369e+01 0 0 0
1921 77 2 0.0000000000000000e+00 -1.2305235436107681e+02 7.8300560373057451e+00 -8.8366633515677876e+01 0 0 0
4056 163 4 0.0000000000000000e+00 -1.1221057161285300e+02 1.1792908993861085e+01 -9.1498822931256385e+01 0 0 0
3841 154 4 0.0000000000000000e+00 -1.2243372442058407e+02 1.6821641335176260e+01 -8.5853971987488208e+01 0 0 0
4057 163 3 0.0000000000000000e+00 -1.0507788949460003e+02 1.8008034806444826e+01 -9.5265827436048866e+01 0 0 0
4193 168 4 0.0000000000000000e+00 -9.9179497321000724e+01 1.3295122249421638e+01 -8.6874298505506431e+01 0 0 0
4194 168 3 0.0000000000000000e+00 -9.1139046366050223e+01 7.5758648683650538e+00 -8.6761816526696251e+01 0 0 0
943 38 2 0.0000000000000000e+00 -8.9205321382003802e+01 1.6021506539150000e+01 -9.2592161594507729e+01 0 0 0
704 29 2 0.0000000000000000e+00 -7.6361827635717304e+01 1.0733254775972481e+01 -9.6239020881012024e+01 0 0 0
705 29 2 0.0000000000000000e+00 -6.7721324752906511e+01 1.5447568239135782e+01 -9.6846557033473175e+01 0 0 0
942 38 2 0.0000000000000000e+00 -8.0135298918369998e+01 1.8007984620364098e+01 -8.8586469782044617e+01 0 0 0
941 38 2 0.0000000000000000e+00 -7.1543759434341723e+01 1.6215168711608733e+01 -8.4196317491041583e+01 0 0 0
939 38 2 0.0000000000000000e+00 -5.3461661272295146e+01 9.3433105350482606e+00 -8.8535249766296801e+01 0 0 0
940 38 2 0.0000000000000000e+00 -6.2742422143709746e+01 1.2259046511417290e+01 -8.4952440995074909e+01 0 0 0
938 38 1 0.0000000000000000e+00 -4.3770179603770266e+01 7.5478662679750164e+00 -8.8236208821598694e+01 0 0 0
4894 196 3 0.0000000000000000e+00 -4.7831970586937636e+01 1.4977474178660044e+01 -9.5907862664317207e+01 0 0 0
4895 196 4 0.0000000000000000e+00 -4.7597679825709022e+01 2.0148245533848904e+01 -8.6971091324663263e+01 0 0 0
4072 163 4 0.0000000000000000e+00 -1.2956483790718826e+02 2.7704463543647712e+01 -8.9638887944786845e+01 0 0 0
3842 154 4 0.0000000000000000e+00 -1.1361574812510470e+02 2.1410622038410896e+01 -8.4555807119064056e+01 0 0 0
3844 154 3 0.0000000000000000e+00 -9.9528537833240136e+01 3.4484372254472511e+01 -8.6046401422761619e+01 0 0 0
2233 90 2 0.0000000000000000e+00 -8.6832988829451097e+01 2.6851565687864202e+01 -9.2426729363440970e+01 0 0 0
706 29 2 0.0000000000000000e+00 -6.1511344880464065e+01 2.2690013908480861e+01 -9.2932567113657484e+01 0 0 0
707 29 1 0.0000000000000000e+00 -5.5509694939395231e+01 2.9441778044986545e+01 -8.8008954255993800e+01 0 0 0
141 6 2 0.0000000000000000e+00 -6.7327812048598446e+01 2.8124083858451776e+01 -8.6318657140427732e+01 0 0 0
1411 57 2 0.0000000000000000e+00 -4.0172179422086508e+01 2.4332819672716077e+01 -9.6840267034617298e+01 0 0 0
4896 196 4 0.0000000000000000e+00 -4.4167697649686559e+01 2.9419505567809921e+01 -8.5409074209351544e+01 0 0 0
3171 127 4 0.0000000000000000e+00 -9.9798786979966721e+01 -8.7355376813128288e+01 -7.1253494091917119e+01 0 0 0
3172 127 4 0.0000000000000000e+00 -9.8521701364541968e+01 -8.0490800651050620e+01 -7.8797669562598671e+01 0 0 0
263 11 1 0.0000000000000000e+00 -5.6398885440358839e+01 -7.4417390250087493e+01 -7.4782097246982360e+01 0 0 0
4389 176 4 0.0000000000000000e+00 -4.6026876857660454e+01 -7.6984016876049282e+01 -6.9586809740391431e+01 0 0 0
3174 127 4 0.0000000000000000e+00 -1.0438633410665116e+02 -6.4494212461450843e+01 -8.3168093074783485e+01 0 0 0
264 11 2 0.0000000000000000e+00 -5.7070627365843627e+01 -6.6288549880748164e+01 -8.1277491357848774e+01 0 0 0
4388 176 3 0.0000000000000000e+00 -4.6548936138917988e+01 -7.1083200691146999e+01 -7.8411032860617709e+01 0 0 0
3175 127 3 0.0000000000000000e+00 -1.0249805010233828e+02 -5.5171548481368497e+01 -8.2031974817433607e+01 0 0 0
4177 168 4 0.0000000000000000e+00 -9.4874311192557926e+01 -5.2589293576893326e+01 -7.5329708273953585e+01 0 0 0
1996 80 2 0.0000000000000000e+00 -7.6120453471115411e+01 -4.9539035109738677e+01 -7.0255756490447695e+01 0 0 0
2899 116 4 0.0000000000000000e+00 -1.1070733121079179e+02 -3.5275678308530516e+01 -8.0840240993202883e+01 0 0 0
1993 80 2 0.0000000000000000e+00 -9.7672690939829891e+01 -3.3481927457718633e+01 -7.5155881296775462e+01 0 0 0
4176 168 3 0.0000000000000000e+00 -9.4374265937094847e+01 -4.6559292393202696e+01 -8.3178940298755137e+01 0 0 0
1995 80 2 0.0000000000000000e+00 -8.4388531559971128e+01 -4.6234575252568476e+01 -7.5113290258520465e+01 0 0 0
1994 80 1 0.0000000000000000e+00 -9.2537861061293810e+01 -4.1900062898794680e+01 -7.2967942474021370e+01 0 0 0
4199 168 4 0.0000000000000000e+00 -8.7659471035749121e+01 -3.4372630864088656e+01 -7.7393421786980440e+01 0 0 0
2395 96 2 0.0000000000000000e+00 -7.0250594107834559e+01 -3.6654956526493720e+01 -7.7492391715921045e+01 0 0 0
2396 96 2 0.0000000000000000e+00 -6.8481817619154612e+01 -4.2854020912362898e+01 -6.9714754804192197e+01 0 0 0
3201 129 3 0.0000000000000000e+00 -6.1270945262918310e+01 -4.2420429628852119e+01 -8.1634639869060010e+01 0 0 0
3202 129 4 0.0000000000000000e+00 -5.7301365029013660e+01 -3.4146012672779953e+01 -7.7086834689863082e+01 0 0 0
4052 163 4 0.0000000000000000e+00 -1.1900967322695048e+02 -2.0065120396219292e+01 -8.1161567295704558e+01 0 0 0
2898 116 4 0.0000000000000000e+00 -1.1314947332175842e+02 -2.6424476654804387e+01 -7.6081939417191549e+01 0 0 0
1992 80 2 0.0000000000000000e+00 -1.0404477290965588e+02 -2.7233442499864026e+01 -7.9181093856334471e+01 0 0 0
4198 168 4 0.0000000000000000e+00 -9.0615208828631694e+01 -2.5121155800531174e+01 -8.0987318326684559e+01 0 0 0
4831 194 4 0.0000000000000000e+00 -7.0354414145430027e+01 -2.2332258851950733e+01 -8.0147643620334080e+01 0 0 0
3203 129 4 0.0000000000000000e+00 -4.9528743215596066e+01 -2.9139945182668725e+01 -7.2944597796525827e+01 0 0 0
3204 129 4 0.0000000000000000e+00 -4.0419890569329354e+01 -2.7077957133499801e+01 -7.6419228423897920e+01 0 0 0
1925 77 1 0.0000000000000000e+00 -1.4252936990441108e+02 -7.1871612623911645e+00 -7.2124239971303425e+01 0 0 0
4053 163 4 0.0000000000000000e+00 -1.2501327549156295e+02 -1.2051031371280340e+01 -8.1053569750686037e+01 0 0 0
1924 77 2 0.0000000000000000e+00 -1.3760100910482899e+02 -1.0802093890234703e+01 -8.0188534651558101e+01 0 0 0
2896 116 4 0.0000000000000000e+00 -1.2574972647716200e+02 -1.3425145917485215e+01 -7.0859101837455441e+01 0 0 0
2897 116 4 0.0000000000000000e+00 -1.1663007594870861e+02 -1.8060343993128495e+01 -7.0911325964931507e+01 0 0 0
1991 80 2 0.0000000000000000e+00 -1.0475206666926894e+02 -1.9418204124156397e+01 -7.2803459746036182e+01 0 0 0
4197 168 4 0.0000000000000000e+00 -9.8188517203767745e+01 -1.8474721501297214e+01 -8.1115262931833655e+01 0 0 0
4196 168 4 0.0000000000000000e+00 -9.1343290263685887e+01 -1.1629357721752726e+01 -8.2695123589978763e+01 0 0 0
1209 49 2 0.0000000000000000e+00 -8.6774840852730620e+01 -8.7616601793489863e+00 -7.2510413152336042e+01 0 0 0
1208 49 2 0.0000000000000000e+00 -8.1601062589384568e+01 -1.5792821247880461e+01 -7.7408237521960089e+01 0 0 0
701 29 1 0.0000000000000000e+00 -8.1427593584046946e+01 -6.8958058633558776e+00 -8.2099474879599356e+01 0 0 0
4842 194 4 0.0000000000000000e+00 -6.9092791218193057e+01 -6.6304667939290196e+00 -7.1302309525531953e+01 0 0 0
2063 83 1 0.0000000000000000e+00 -5.3964588274414687e+01 -1.2842712559476075e+01 -8.1812659776848164e+01 0 0 0
4832 194 3 0.0000000000000000e+00 -6.5829648113621445e+01 -1.9397080742896733e+01 -7.1797476519912848e+01 0 0 0
4843 194 4 0.0000000000000000e+00 -5.9262829616453104e+01 -8.9970384364953784e+00 -7.3172981358370706e+01 0 0 0
4844 194 3 0.0000000000000000e+00 -4.9109146184849976e+01 -9.8644357744259015e+00 -7.1665328821130984e+01 0 0 0
3750 150 3 0.0000000000000000e+00 -1.5364803364436574e+02 5.1432121915887361e+00 -7.1580143316855143e+01 0 0 0
2894 116 3 0.0000000000000000e+00 -1.2814697384854341e+02 6.1618273770207583e+00 -7.0330026417899347e+01 0 0 0
4190 168 4 0.0000000000000000e+00 -1.1368529160238387e+02 -5.9800868850489524e+00 -7.2233908634660793e+01 0 0 0
4191 168 4 0.0000000000000000e+00 -1.1201991022007213e+02 4.6112000231181166e-01 -8.0091324626200830e+01 0 0 0
1919 77 1 0.0000000000000000e+00 -1.1653734786341015e+02 6.1458821350180610e+00 -7.1608695068950453e+01 0 0 0
4997 200 4 0.0000000000000000e+00 -1.0017494347118324e+02 -1.1255873235987421e+00 -7.6592519527921297e+01 0 0 0
4996 200 4 0.0000000000000000e+00 -1.0512633740261097e+02 4.7633686588352617e+00 -6.9895174488312165e+01 0 0 0
4195 168 4 0.0000000000000000e+00 -9.0223024465679856e+01 -1.5052881348334617e+00 -8.3198975415198163e+01 0 0 0
3601 145 3 0.0000000000000000e+00 -7.7738650531885284e+01 4.2768816847711610e+00 -8.3183915835892478e+01 0 0 0
3602 145 4 0.0000000000000000e+00 -6.9413881887728721e+01 4.3504184879710186e+00 -7.7638163237850080e+01 0 0 0
4841 194 4 0.0000000000000000e+00 -7.7452351974325609e+01 -8.1252688971998011e-01 -7.2316454928738196e+01 0 0 0
2062 83 2 0.0000000000000000e+00 -6.2005930148772535e+01 -5.9074289902631740e+00 -8.2033887507650547e+01 0 0 0
3603 145 4 0.0000000000000000e+00 -5.9847236251655936e+01 6.9244071394284390e+00 -7.6842016893571284e+01 0 0 0
4350 174 3 0.0000000000000000e+00 -5.2789127852304794e+01 9.8345523079750075e-01 -8.2474561638662436e+01 0 0 0
4349 174 4 0.0000000000000000e+00 -4.5258497674557624e+01 2.1502157282387380e+00 -7.5954774371896619e+01 0 0 0
3838 154 3 0.0000000000000000e+00 -1.4221633009211922e+02 1.2447494625305959e+01 -6.9804367070745869e+01 0 0 0
3840 154 4 0.0000000000000000e+00 -1.3180144196305378e+02 1.9984327022530643e+01 -8.2549965684679421e+01 0 0 0
3839 154 4 0.0000000000000000e+00 -1.3695984486069960e+02 1.1883220868231231e+01 -7.8536515054189934e+01 0 0 0
2893 116 4 0.0000000000000000e+00 -1.2529168496579223e+02 1.4844068703083868e+01 -7.4817245261287084e+01 0 0 0
1920 77 2 0.0000000000000000e+00 -1.1596868777956804e+02 8.6829137732959421e+00 -8.1089876395263403e+01 0 0 0
135 6 2 0.0000000000000000e+00 -1.1057634373326982e+02 1.8642219804602554e+01 -7.6571504423715709e+01 0 0 0
4192 168 4 0.0000000000000000e+00 -1.0632825991416472e+02 8.6089857910738274e+00 -8.1322444653579524e+01 0 0 0
136 6 2 0.0000000000000000e+00 -1.0079506440676117e+02 2.0196623199736290e+01 -7.9051223657597660e+01 0 0 0
2230 90 2 0.0000000000000000e+00 -9.1267165418215455e+01 1.0844997632107901e+01 -7.4226514003845409e+01 0 0 0
2231 90 2 0.0000000000000000e+00 -8.3744446735559052e+01 1.6872399184945287e+01 -7.7027779245756534e+01 0 0 0
3604 145 4 0.0000000000000000e+00 -5.2823673346415617e+01 1.4526914384971976e+01 -7.7220915429620632e+01 0 0 0