LAMMPS data file via write_data, version 5 Jun 2019, timestep = 340000000

5000 atoms
4 atom types
5251 bonds
3 bond types
4600 angles
2 angle types

-2.5000000000000000e+02 2.5000000000000000e+02 xlo xhi
-2.5000000000000000e+02 2.5000000000000000e+02 ylo yhi
-2.5000000000000000e+02 2.5000000000000000e+02 zlo zhi

Masses

1 1000
2 1000
3 1000
4 1000

Pair Coeffs # lj/cut

1 0.3 10
2 0.3 10
3 0.3 10
4 0.3 10

Bond Coeffs # harmonic

1 3 10
2 3 10
3 1.8 11.22

Angle Coeffs # cosine

1 2
2 2

Atoms # full

2013 81 1 0.0000000000000000e+00 -5.3748497039509360e+01 -1.1049108813852733e+01 -1.7004868819798952e+02 0 0 0
4876 196 3 0.0000000000000000e+00 -1.1155963018379508e+01 -9.1310995624323361e+00 -1.7450038846393150e+02 0 0 0
4877 196 4 0.0000000000000000e+00 -1.6275015107850679e+00 -5.7661443437429707e+00 -1.7393682896086014e+02 0 0 0
4472 179 4 0.0000000000000000e+00 -5.5256208740090607e+01 -4.5203052830498876e+01 -1.5187285552010320e+02 0 0 0
2244 90 1 0.0000000000000000e+00 -8.1287755510202231e+01 -3.1856885823068595e+01 -1.5235192251680004e+02 0 0 0
4473 179 4 0.0000000000000000e+00 -5.8491012534162081e+01 -3.5464095068565527e+01 -1.5371923982966692e+02 0 0 0
1841 74 2 0.0000000000000000e+00 -1.8091759827060940e+01 -3.8823580386784087e+01 -1.5758000691719602e+02 0 0 0
2243 90 2 0.0000000000000000e+00 -7.5266081018229571e+01 -2.4048592921387709e+01 -1.5402243476765344e+02 0 0 0
4474 179 4 0.0000000000000000e+00 -5.7004605340363319e+01 -2.6389391076987522e+01 -1.5702407179776051e+02 0 0 0
1839 74 2 0.0000000000000000e+00 -2.1332095253216657e+01 -2.3440908131329319e+01 -1.5684964200420629e+02 0 0 0
1840 74 2 0.0000000000000000e+00 -1.4407847691620406e+01 -2.9795969463405331e+01 -1.6047743661867037e+02 0 0 0
2242 90 2 0.0000000000000000e+00 -7.0131011285435576e+01 -1.5664017435026585e+01 -1.5362985103234138e+02 0 0 0
4475 179 3 0.0000000000000000e+00 -5.2495059863178682e+01 -1.7586436266712074e+01 -1.6096623550968221e+02 0 0 0
2011 81 2 0.0000000000000000e+00 -5.2779888917647241e+01 -6.0846209152963615e+00 -1.5133206280968994e+02 0 0 0
2012 81 2 0.0000000000000000e+00 -5.3647624595948983e+01 -6.6645673433732124e+00 -1.6136220342378550e+02 0 0 0
3974 159 4 0.0000000000000000e+00 -3.6650987101241526e+01 -1.0913794823280099e+01 -1.5400594372546072e+02 0 0 0
3975 159 3 0.0000000000000000e+00 -3.3076984244393444e+01 -1.6087720897417459e+01 -1.6189819386467357e+02 0 0 0
1838 74 1 0.0000000000000000e+00 -2.3769906924195055e+01 -1.3831824604961284e+01 -1.5658942195331852e+02 0 0 0
1837 74 2 0.0000000000000000e+00 -1.7292988816880591e+01 -8.1698500358719119e+00 -1.5119271796395640e+02 0 0 0
2383 96 2 0.0000000000000000e+00 -3.9672860437832709e+00 -1.0258398820367388e+01 -1.5137834827409088e+02 0 0 0
584 24 2 0.0000000000000000e+00 -6.5558308872692933e+01 -5.1649267772556051e+01 -1.3880081558009624e+02 0 0 0
4471 179 4 0.0000000000000000e+00 -5.4626877324020114e+01 -5.3121201076425038e+01 -1.4575951304589495e+02 0 0 0
3054 123 4 0.0000000000000000e+00 -4.1159554552642561e+01 -5.7000108096548146e+01 -1.4067984399009583e+02 0 0 0
3055 123 4 0.0000000000000000e+00 -3.8943688805499555e+01 -4.8294118037112803e+01 -1.4504159823826043e+02 0 0 0
1843 74 2 0.0000000000000000e+00 -2.1500103982833412e+01 -4.8269128617016833e+01 -1.4031224753824776e+02 0 0 0
2246 90 2 0.0000000000000000e+00 -9.2345046297191885e+01 -4.1332449907318697e+01 -1.3774262134127019e+02 0 0 0
2245 90 2 0.0000000000000000e+00 -8.8218365400581348e+01 -3.6429641507846164e+01 -1.4583778883908690e+02 0 0 0
3175 127 3 0.0000000000000000e+00 -7.8909358736945975e+01 -3.3524247546814273e+01 -1.4135449720175075e+02 0 0 0
3057 123 3 0.0000000000000000e+00 -5.3119388662387479e+01 -3.4657556206654498e+01 -1.4563292716294532e+02 0 0 0
585 24 2 0.0000000000000000e+00 -6.1515909204770033e+01 -4.2226739034237703e+01 -1.3857140241904955e+02 0 0 0
3056 123 4 0.0000000000000000e+00 -4.4981984540820037e+01 -4.0594053771035753e+01 -1.4679339330061313e+02 0 0 0
1842 74 2 0.0000000000000000e+00 -1.9994383381084422e+01 -4.3572081172484964e+01 -1.4885575612779709e+02 0 0 0
2380 96 2 0.0000000000000000e+00 -1.9910739149953280e+01 -3.1954887377341045e+01 -1.3748344635545470e+02 0 0 0
4451 179 3 0.0000000000000000e+00 -9.9859521914096135e+01 -1.8654301035763289e+01 -1.4116411822264897e+02 0 0 0
2064 83 2 0.0000000000000000e+00 -7.6429259340990384e+01 -2.1546619793158886e+01 -1.4362889816127634e+02 0 0 0
2063 83 1 0.0000000000000000e+00 -6.6315959386389437e+01 -2.3353991468628799e+01 -1.4274871149745036e+02 0 0 0
3058 123 4 0.0000000000000000e+00 -5.8909701543300386e+01 -3.0080976152188992e+01 -1.3916125014337274e+02 0 0 0
1074 43 2 0.0000000000000000e+00 -4.8242218446471696e+01 -2.1843544132840261e+01 -1.4076009902492268e+02 0 0 0
2062 83 2 0.0000000000000000e+00 -5.7450992512729336e+01 -1.8996170115638623e+01 -1.3966151979763592e+02 0 0 0
1075 43 1 0.0000000000000000e+00 -4.7965535217967648e+01 -2.5556193705697435e+01 -1.4982038342684834e+02 0 0 0
2381 96 2 0.0000000000000000e+00 -1.4092281816494125e+01 -2.4768283420323542e+01 -1.4250512592646322e+02 0 0 0
2382 96 1 0.0000000000000000e+00 -8.7929349280423423e+00 -1.8998574969712941e+01 -1.4963213612716652e+02 0 0 0
2252 91 2 0.0000000000000000e+00 1.0996941794946582e+00 -2.9630677645981262e+01 -1.3948469542753455e+02 0 0 0
3651 147 3 0.0000000000000000e+00 2.8515094754891410e+00 -1.9753311010344703e+01 -1.4938451585529438e+02 0 0 0
1834 74 2 0.0000000000000000e+00 2.2868709803716349e+00 -2.0167416207909589e+01 -1.3726494164480044e+02 0 0 0
2067 83 2 0.0000000000000000e+00 -8.9930843465474922e+01 -6.2011562143460637e+00 -1.4874694214234285e+02 0 0 0
2066 83 2 0.0000000000000000e+00 -8.9266214144591316e+01 -1.5234702837217501e+01 -1.4479913272662250e+02 0 0 0
2241 90 2 0.0000000000000000e+00 -7.7189955163490481e+01 -8.7469163633234572e+00 -1.4911601421013506e+02 0 0 0
2065 83 2 0.0000000000000000e+00 -8.1833422933805835e+01 -1.5152189726289665e+01 -1.3791626122795449e+02 0 0 0
2240 90 2 0.0000000000000000e+00 -8.3282158218347973e+01 -5.6430064255996673e+00 -1.4177899434320852e+02 0 0 0
3070 123 4 0.0000000000000000e+00 -6.5371566458048108e+01 -9.5268560991378290e+00 -1.4228776312160201e+02 0 0 0
3973 159 4 0.0000000000000000e+00 -4.3111428904942365e+01 -7.3168036687455436e+00 -1.4713157358385868e+02 0 0 0
3972 159 4 0.0000000000000000e+00 -4.2305934752025266e+01 -8.6184426648770671e+00 -1.3701411338514393e+02 0 0 0
1836 74 2 0.0000000000000000e+00 -1.3574145961076443e+01 -9.7829811737508923e+00 -1.4221928468609300e+02 0 0 0
1835 74 2 0.0000000000000000e+00 -5.1677690834977525e+00 -1.3656706647798277e+01 -1.3952047176122079e+02 0 0 0
354 15 2 0.0000000000000000e+00 -3.2847123355940546e+01 -8.2663874474986940e+01 -1.2606605542657852e+02 0 0 0
353 15 2 0.0000000000000000e+00 -2.3739291728758513e+01 -7.8563230511243432e+01 -1.2932537346650963e+02 0 0 0
2275 91 1 0.0000000000000000e+00 -3.7802215452049296e+01 -6.2486793695343174e+01 -1.2718072768149482e+02 0 0 0
3053 123 4 0.0000000000000000e+00 -3.3330065970494530e+01 -6.2191982546632723e+01 -1.3689475802494829e+02 0 0 0
3052 123 4 0.0000000000000000e+00 -2.7652348486900156e+01 -6.5530073149212754e+01 -1.2861318446442976e+02 0 0 0
352 15 2 0.0000000000000000e+00 -1.6620072023524980e+01 -7.1306030771637197e+01 -1.2975411552415281e+02 0 0 0
2247 90 2 0.0000000000000000e+00 -9.6179130210471016e+01 -4.8853609680067443e+01 -1.3136853165540967e+02 0 0 0
2248 90 2 0.0000000000000000e+00 -9.2160272750564530e+01 -5.3277310844585692e+01 -1.2296557095354201e+02 0 0 0
583 24 2 0.0000000000000000e+00 -6.3914887379696637e+01 -5.3082249773803866e+01 -1.2872521099307514e+02 0 0 0
4470 179 4 0.0000000000000000e+00 -5.0962457031453901e+01 -5.5224985385172651e+01 -1.3673514335010907e+02 0 0 0
4469 179 3 0.0000000000000000e+00 -4.7220976368815407e+01 -5.7363298405573687e+01 -1.2800027968510483e+02 0 0 0
1845 74 2 0.0000000000000000e+00 -2.7699786583279405e+01 -5.4330244642416680e+01 -1.2560308031881493e+02 0 0 0
1844 74 1 0.0000000000000000e+00 -2.4975756545899880e+01 -5.6003205768171476e+01 -1.3514474499560822e+02 0 0 0
2796 112 4 0.0000000000000000e+00 -2.6595691285990006e+00 -4.8961963106770824e+01 -1.2760876047474865e+02 0 0 0
2795 112 4 0.0000000000000000e+00 4.4407323989322594e+00 -5.4910254702285094e+01 -1.2302680301345384e+02 0 0 0
2249 90 2 0.0000000000000000e+00 -8.8759653920598339e+01 -4.3958776214274124e+01 -1.2401933653967272e+02 0 0 0
2250 90 1 0.0000000000000000e+00 -7.8923309907065814e+01 -4.0832665640886681e+01 -1.2308134631772673e+02 0 0 0
3174 127 4 0.0000000000000000e+00 -8.6683586315306400e+01 -3.2065603457394651e+01 -1.3518262261334141e+02 0 0 0
586 24 2 0.0000000000000000e+00 -6.5062596472387298e+01 -3.9763889843479348e+01 -1.2971643348557694e+02 0 0 0
1072 43 2 0.0000000000000000e+00 -5.2715637244720796e+01 -3.8205420534551898e+01 -1.3145994035018856e+02 0 0 0
1071 43 2 0.0000000000000000e+00 -5.1811828745397136e+01 -4.2994523747084557e+01 -1.2309854083224199e+02 0 0 0
2377 96 2 0.0000000000000000e+00 -4.0070999077821796e+01 -3.9291756984350677e+01 -1.2483913467679520e+02 0 0 0
2378 96 2 0.0000000000000000e+00 -3.4431665318713776e+01 -4.4383210667973756e+01 -1.3132173871033157e+02 0 0 0
2379 96 2 0.0000000000000000e+00 -2.6289406304482281e+01 -3.9329382123808770e+01 -1.3485128627286488e+02 0 0 0
1849 74 2 0.0000000000000000e+00 -3.3109722946709645e+01 -3.3216719882481335e+01 -1.2417632950306776e+02 0 0 0
2797 112 4 0.0000000000000000e+00 -6.9007243891410539e+00 -4.0143889960011926e+01 -1.2965337014750310e+02 0 0 0
2253 91 2 0.0000000000000000e+00 5.9981013962460261e-01 -3.2134898506336505e+01 -1.2957232181049952e+02 0 0 0
4452 179 4 0.0000000000000000e+00 -9.3773462006398461e+01 -2.5475159860010148e+01 -1.3648167159607951e+02 0 0 0
3173 127 4 0.0000000000000000e+00 -9.1109284929151059e+01 -3.0157247206544799e+01 -1.2605504124113715e+02 0 0 0
4453 179 4 0.0000000000000000e+00 -9.0213697306099434e+01 -2.0407889936562444e+01 -1.2847994698896508e+02 0 0 0
3068 123 4 0.0000000000000000e+00 -7.6974422691165529e+01 -1.8352479219267853e+01 -1.2812964856843067e+02 0 0 0
3059 123 4 0.0000000000000000e+00 -6.2857147293374005e+01 -2.9872080309111251e+01 -1.3005880179136537e+02 0 0 0
3060 123 4 0.0000000000000000e+00 -6.7234419749112931e+01 -2.2590346301125667e+01 -1.2476741708965891e+02 0 0 0
2061 83 2 0.0000000000000000e+00 -5.5349144476693958e+01 -2.1965292591659342e+01 -1.3072901350676258e+02 0 0 0
1073 43 2 0.0000000000000000e+00 -4.9933508731397040e+01 -2.8704596404777391e+01 -1.3423644453493225e+02 0 0 0
1850 74 1 0.0000000000000000e+00 -3.9993963509027935e+01 -2.6664966640540911e+01 -1.2784830807449671e+02 0 0 0
4393 176 4 0.0000000000000000e+00 -2.2988341666749928e+01 -2.9750978650993090e+01 -1.2694909806552774e+02 0 0 0
4394 176 3 0.0000000000000000e+00 -2.9588816858153397e+01 -2.1821509858408344e+01 -1.2640802233287695e+02 0 0 0
2798 112 4 0.0000000000000000e+00 -1.0712103127840459e+01 -3.0859006324804611e+01 -1.2863056145189435e+02 0 0 0
2799 112 4 0.0000000000000000e+00 -1.6596979758685418e+01 -2.3396505633279546e+01 -1.3063874710974332e+02 0 0 0
1833 74 2 0.0000000000000000e+00 -5.6786584025936926e-01 -1.8400657653230297e+01 -1.2812831470735745e+02 0 0 0
2237 90 2 0.0000000000000000e+00 -1.0646296452909031e+02 -1.0515135801734791e+01 -1.2623044965352302e+02 0 0 0
2239 90 2 0.0000000000000000e+00 -9.1783628380505462e+01 -4.6565064465345918e+00 -1.3577573779534765e+02 0 0 0
2238 90 1 0.0000000000000000e+00 -9.8063797098164756e+01 -1.1682016597156984e+01 -1.3243179530052765e+02 0 0 0
4454 179 4 0.0000000000000000e+00 -9.3258544561296617e+01 -1.1930904256499945e+01 -1.2366224933074172e+02 0 0 0
3069 123 3 0.0000000000000000e+00 -7.1336088983147008e+01 -1.5300870346852772e+01 -1.3572557376624755e+02 0 0 0
3967 159 4 0.0000000000000000e+00 -6.6474746168256218e+01 -1.0274922298058248e+01 -1.2814275304697574e+02 0 0 0
2008 81 2 0.0000000000000000e+00 -5.5605328431844953e+01 -4.4284663459285500e+00 -1.2347990416166806e+02 0 0 0
3971 159 4 0.0000000000000000e+00 -4.6383120711254691e+01 -6.5101498817210066e+00 -1.2818933173194924e+02 0 0 0
3178 128 4 0.0000000000000000e+00 -3.9487992474738050e+01 -1.5263105892280670e+01 -1.3066164258394761e+02 0 0 0
3179 128 4 0.0000000000000000e+00 -3.2491819817352791e+01 -8.9480276554361513e+00 -1.3401752614468768e+02 0 0 0
2800 112 3 0.0000000000000000e+00 -1.8809703788496421e+01 -1.3541928653237790e+01 -1.3256237624729781e+02 0 0 0
3271 131 4 0.0000000000000000e+00 -2.0205400256694563e+00 -5.3302810110550292e+00 -1.2395661004512698e+02 0 0 0
3152 127 4 0.0000000000000000e+00 -3.7523339506574011e+01 -1.0200816621296367e+02 -1.0988117357056269e+02 0 0 0
3151 127 3 0.0000000000000000e+00 -4.5020335134781028e+01 -9.5910810865761491e+01 -1.1228728012750153e+02 0 0 0
356 15 2 0.0000000000000000e+00 -3.9348485624136238e+01 -8.7193141966619407e+01 -1.1125182115811461e+02 0 0 0
355 15 2 0.0000000000000000e+00 -3.9640488791059980e+01 -8.8196287836552628e+01 -1.2116616043130919e+02 0 0 0
2270 91 2 0.0000000000000000e+00 -2.4176278220345594e+01 -9.0680703110165013e+01 -1.0955446548994782e+02 0 0 0
2271 91 2 0.0000000000000000e+00 -2.4784013893551609e+01 -9.0136742240639833e+01 -1.1903982479876152e+02 0 0 0
2273 91 2 0.0000000000000000e+00 -3.6782833351720910e+01 -7.5880627873545265e+01 -1.1282199492333670e+02 0 0 0
2272 91 2 0.0000000000000000e+00 -3.0408939309199674e+01 -8.3603711487419403e+01 -1.1457834104789185e+02 0 0 0
2259 91 2 0.0000000000000000e+00 1.1699117828496250e+00 -7.7459621815702718e+01 -1.0979909542697698e+02 0 0 0
3160 127 4 0.0000000000000000e+00 -7.6948777127213773e+01 -6.7345625793045627e+01 -1.1665481948344006e+02 0 0 0
3161 127 4 0.0000000000000000e+00 -7.7464635087469631e+01 -6.0706361423046928e+01 -1.0888069657417446e+02 0 0 0
3159 127 4 0.0000000000000000e+00 -6.8114793418833415e+01 -6.4678047839139012e+01 -1.1390735735522571e+02 0 0 0
2274 91 2 0.0000000000000000e+00 -3.7479324683228000e+01 -7.0545037583121783e+01 -1.2133716190318709e+02 0 0 0
3051 123 3 0.0000000000000000e+00 -2.2086880216623289e+01 -6.7215254085924684e+01 -1.1983355498862214e+02 0 0 0
1846 74 2 0.0000000000000000e+00 -3.0237726919782975e+01 -6.0587656965006929e+01 -1.1842578662598919e+02 0 0 0
351 15 1 0.0000000000000000e+00 -1.2210397972049938e+01 -6.5645567609284640e+01 -1.2231827185110906e+02 0 0 0
2257 91 1 0.0000000000000000e+00 -5.3618072104888546e+00 -5.9277771525227429e+01 -1.1440110183011770e+02 0 0 0
2258 91 2 0.0000000000000000e+00 -4.8309213434509446e-01 -6.8083412811985269e+01 -1.1352878374783208e+02 0 0 0
4198 168 4 0.0000000000000000e+00 -8.7683606574743450e+01 -5.1999309518461907e+01 -1.0883239150265418e+02 0 0 0
4199 168 4 0.0000000000000000e+00 -8.3260925603528761e+01 -4.8665903859275197e+01 -1.1745316586638211e+02 0 0 0
582 24 1 0.0000000000000000e+00 -6.7189059806130828e+01 -4.7245830375161425e+01 -1.2106083439803749e+02 0 0 0
4200 168 3 0.0000000000000000e+00 -7.4686919074649012e+01 -5.4126214771937455e+01 -1.1827106994954976e+02 0 0 0
4467 179 4 0.0000000000000000e+00 -6.1335907189661469e+01 -5.2647017239009891e+01 -1.1428632206968169e+02 0 0 0
4468 179 4 0.0000000000000000e+00 -5.2452821117528543e+01 -5.4344179206408008e+01 -1.1993925079347656e+02 0 0 0
4945 198 4 0.0000000000000000e+00 -3.5807526846912005e+01 -5.5211865619107193e+01 -1.1261714059238582e+02 0 0 0
4946 198 4 0.0000000000000000e+00 -4.5674639700114383e+01 -5.6127832099909519e+01 -1.1034969858936110e+02 0 0 0
1847 74 2 0.0000000000000000e+00 -2.7982578063434826e+01 -5.0937551143439791e+01 -1.1693665712099212e+02 0 0 0
2256 91 2 0.0000000000000000e+00 -1.0305176138573966e+01 -5.0722959088252317e+01 -1.1245906781357367e+02 0 0 0
4390 176 4 0.0000000000000000e+00 -2.0940016464292619e+01 -4.8512706142998965e+01 -1.0987022105213956e+02 0 0 0
2794 112 3 0.0000000000000000e+00 5.4741379136916155e+00 -5.7453620255690595e+01 -1.1341218991866194e+02 0 0 0
3170 127 4 0.0000000000000000e+00 -9.9908682811228260e+01 -4.1853802872788080e+01 -1.1161961342379949e+02 0 0 0
3172 127 4 0.0000000000000000e+00 -8.9079815425521858e+01 -3.2490120168007707e+01 -1.1671457308077386e+02 0 0 0
587 24 2 0.0000000000000000e+00 -6.8926751033525662e+01 -3.5419049317346335e+01 -1.2211422493530377e+02 0 0 0
588 24 1 0.0000000000000000e+00 -6.9099466600897401e+01 -3.6235923792023193e+01 -1.1190594650211098e+02 0 0 0
581 24 2 0.0000000000000000e+00 -5.9815799612625469e+01 -4.2712596148673747e+01 -1.1662047132794727e+02 0 0 0
2059 83 2 0.0000000000000000e+00 -5.0931595919577418e+01 -3.3355927438091598e+01 -1.1477339706586345e+02 0 0 0
1070 43 2 0.0000000000000000e+00 -4.5915617523593014e+01 -4.2281942110388790e+01 -1.1483396508943257e+02 0 0 0
2376 96 1 0.0000000000000000e+00 -3.7194339774146769e+01 -3.8122194389904379e+01 -1.1454871812666391e+02 0 0 0
1848 74 2 0.0000000000000000e+00 -2.9521577546022439e+01 -4.2318006493735105e+01 -1.2100433747747064e+02 0 0 0
4391 176 4 0.0000000000000000e+00 -2.4114530240696208e+01 -3.9324814992007674e+01 -1.1157154017168357e+02 0 0 0
4392 176 4 0.0000000000000000e+00 -1.9435624412836589e+01 -3.4439574138368869e+01 -1.1830354303026080e+02 0 0 0
2255 91 2 0.0000000000000000e+00 -6.3053963083242017e+00 -4.1901297771587217e+01 -1.1396473982304764e+02 0 0 0
2254 91 2 0.0000000000000000e+00 -3.1973184297742741e+00 -3.5305949824022136e+01 -1.2075318949589251e+02 0 0 0
1175 47 1 0.0000000000000000e+00 -9.4907439916530535e+01 -2.7577578768165505e+01 -1.1114005397628166e+02 0 0 0
3166 127 4 0.0000000000000000e+00 -8.9499391716156765e+01 -1.8024468447371625e+01 -1.1260900221769492e+02 0 0 0
3165 127 4 0.0000000000000000e+00 -8.0854201745743808e+01 -2.3013753148503948e+01 -1.1273949803586375e+02 0 0 0
3061 123 4 0.0000000000000000e+00 -7.1853311250890087e+01 -2.0679851093198234e+01 -1.1624516620216902e+02 0 0 0
2060 83 2 0.0000000000000000e+00 -5.3477914817903361e+01 -2.7000348201706149e+01 -1.2192862194914044e+02 0 0 0
4398 176 4 0.0000000000000000e+00 -5.0565698096495609e+01 -2.3005152529757783e+01 -1.0911406145083957e+02 0 0 0
3177 128 4 0.0000000000000000e+00 -4.1444417702513981e+01 -1.8586040489324620e+01 -1.2086738572061384e+02 0 0 0
3176 128 3 0.0000000000000000e+00 -4.1102156452414000e+01 -2.7116470436528353e+01 -1.1454275153949963e+02 0 0 0
4395 176 4 0.0000000000000000e+00 -3.2151702925109333e+01 -2.2592412351835808e+01 -1.1642855233569404e+02 0 0 0
1152 47 2 0.0000000000000000e+00 -2.0971778569123131e+01 -1.9250471423891295e+01 -1.1288887403282057e+02 0 0 0
3268 131 4 0.0000000000000000e+00 -1.4574881448717258e+01 -2.6797939513670013e+01 -1.1512024367498128e+02 0 0 0
3269 131 3 0.0000000000000000e+00 -1.1552818230184970e+01 -1.8246847072304668e+01 -1.2002873629856525e+02 0 0 0
1832 74 1 0.0000000000000000e+00 -2.1443880109573508e+00 -2.5416626721470646e+01 -1.2061407289782461e+02 0 0 0
1831 74 2 0.0000000000000000e+00 4.0127689587316109e+00 -2.8655078203815442e+01 -1.1257674274667424e+02 0 0 0
2236 90 2 0.0000000000000000e+00 -1.0784791413274860e+02 -1.0022897525878784e+01 -1.1629366149310600e+02 0 0 0
4455 179 4 0.0000000000000000e+00 -9.7948164355924618e+01 -4.9894188461157674e+00 -1.1828898526269474e+02 0 0 0
3067 123 4 0.0000000000000000e+00 -7.6405711640665103e+01 -1.1074441488701687e+01 -1.2062894123973621e+02 0 0 0
3065 123 4 0.0000000000000000e+00 -8.3390074176932018e+01 -1.1268190944160093e+01 -1.0939060233683989e+02 0 0 0
3062 123 4 0.0000000000000000e+00 -7.3431660633569678e+01 -1.4372234665403365e+01 -1.0932013402263576e+02 0 0 0
3968 159 4 0.0000000000000000e+00 -6.0886764581579236e+01 -1.4273882609831919e+01 -1.2021756685489781e+02 0 0 0
3969 159 3 0.0000000000000000e+00 -5.2283420535789652e+01 -1.1052192251862575e+01 -1.1580816997483127e+02 0 0 0
2007 81 1 0.0000000000000000e+00 -6.0840290623179555e+01 -4.7728708107204794e+00 -1.1498140565812474e+02 0 0 0
3970 159 4 0.0000000000000000e+00 -4.3282299982709844e+01 -8.5337865727886513e+00 -1.1837944480370460e+02 0 0 0
2395 96 2 0.0000000000000000e+00 -3.4695627113267975e+01 -1.1778490188345300e+01 -1.1247420375855648e+02 0 0 0
1151 47 1 0.0000000000000000e+00 -2.1976790588754312e+01 -1.4996144750979431e+01 -1.2148469116241574e+02 0 0 0
2394 96 1 0.0000000000000000e+00 -2.4692798917926922e+01 -1.0067771826613876e+01 -1.1382431527902847e+02 0 0 0
3270 131 4 0.0000000000000000e+00 -1.1073715363641099e+01 -7.9880383160504911e+00 -1.2138187772575955e+02 0 0 0
2393 96 2 0.0000000000000000e+00 -1.6211756359397896e+01 -6.7017031588162732e+00 -1.1167852933482173e+02 0 0 0
2392 96 2 0.0000000000000000e+00 -6.3779656372079812e+00 -4.2698821016570641e+00 -1.1228323407208686e+02 0 0 0
358 15 2 0.0000000000000000e+00 -5.2390937929917257e+01 -9.1909639386149735e+01 -9.6714112561719119e+01 0 0 0
357 15 1 0.0000000000000000e+00 -4.6799510359510421e+01 -8.8396426744092039e+01 -1.0441856912813948e+02 0 0 0
3153 127 4 0.0000000000000000e+00 -3.4971948257890276e+01 -9.5930314482897629e+01 -1.0204530570109912e+02 0 0 0
3154 127 4 0.0000000000000000e+00 -3.7916641045623983e+01 -8.6618164204693571e+01 -9.8379747693287243e+01 0 0 0
2269 91 1 0.0000000000000000e+00 -2.3467077530343055e+01 -9.1451430413225950e+01 -9.9763615806514096e+01 0 0 0
3156 127 4 0.0000000000000000e+00 -5.2069616256210871e+01 -7.5240434364033490e+01 -9.8245270680398619e+01 0 0 0
3155 127 4 0.0000000000000000e+00 -4.3247353585583930e+01 -7.8662907574599302e+01 -9.5098556022750444e+01 0 0 0
4928 198 4 0.0000000000000000e+00 -2.6145004838475469e+01 -7.5406228736878049e+01 -9.4898905420805974e+01 0 0 0
4926 198 3 0.0000000000000000e+00 -1.5704161152778928e+01 -8.5471024479694094e+01 -1.0588689955253247e+02 0 0 0
4927 198 4 0.0000000000000000e+00 -1.6887427275307267e+01 -7.8566991436794908e+01 -9.9287742665362586e+01 0 0 0
2260 91 2 0.0000000000000000e+00 2.1777389791646713e+00 -8.3431306309610022e+01 -1.0190267754438629e+02 0 0 0
3158 127 4 0.0000000000000000e+00 -6.0775029605929284e+01 -6.3605322791970316e+01 -1.0739653525424748e+02 0 0 0
3157 127 3 0.0000000000000000e+00 -5.6631807586467581e+01 -6.5983091258201284e+01 -9.8481226366494369e+01 0 0 0
1162 47 2 0.0000000000000000e+00 -4.3009364354464203e+01 -5.9074532554034711e+01 -9.9961788859729765e+01 0 0 0
4386 176 4 0.0000000000000000e+00 4.2426229265033895e+00 -6.6727172988739483e+01 -9.9314891271532844e+01 0 0 0
4387 176 4 0.0000000000000000e+00 -3.1660774483076470e+00 -6.2380033214288126e+01 -1.0425280499661802e+02 0 0 0
2228 90 2 0.0000000000000000e+00 -8.8074421083631989e+01 -4.7802055560004192e+01 -9.5128076375714031e+01 0 0 0
4197 168 4 0.0000000000000000e+00 -8.5670669637237054e+01 -5.7590442907970463e+01 -1.0098166002372427e+02 0 0 0
3162 127 4 0.0000000000000000e+00 -7.8249105542879349e+01 -5.1418360756211079e+01 -1.0380956862533844e+02 0 0 0
4466 179 4 0.0000000000000000e+00 -6.4551199754388605e+01 -4.8881757105043306e+01 -1.0476305234594189e+02 0 0 0
4465 179 4 0.0000000000000000e+00 -7.0683693936195553e+01 -5.6287720851883314e+01 -1.0115114818579291e+02 0 0 0
4464 179 4 0.0000000000000000e+00 -7.2325154817167515e+01 -4.7857702926716414e+01 -9.5711274681838447e+01 0 0 0
4948 198 4 0.0000000000000000e+00 -5.7533361974470957e+01 -5.4965277831272502e+01 -9.8108579813138164e+01 0 0 0
4947 198 4 0.0000000000000000e+00 -5.1706553385942364e+01 -5.0923480449159349e+01 -1.0493000906489971e+02 0 0 0
4944 198 3 0.0000000000000000e+00 -3.2879204327741149e+01 -4.6459894445483499e+01 -1.0811682123157117e+02 0 0 0
1160 47 2 0.0000000000000000e+00 -2.6718247934289362e+01 -5.7233771595957954e+01 -9.5325335199062678e+01 0 0 0
1161 47 2 0.0000000000000000e+00 -3.4440352195204156e+01 -5.4366772211090314e+01 -1.0075989236437037e+02 0 0 0
4388 176 3 0.0000000000000000e+00 -8.4479467829960342e+00 -5.7531814130617548e+01 -9.6810640787629495e+01 0 0 0
4389 176 4 0.0000000000000000e+00 -1.4666512080367870e+01 -5.1619002694269440e+01 -1.0227665815679491e+02 0 0 0
3290 132 4 0.0000000000000000e+00 -1.9899034925577787e+01 -4.5240516947864066e+01 -9.6128082665539239e+01 0 0 0
61 3 2 0.0000000000000000e+00 2.0124027668264834e+00 -4.7234966564497988e+01 -9.6687004338856866e+01 0 0 0
60 3 2 0.0000000000000000e+00 -1.1413790845909446e+00 -4.6023808721276225e+01 -1.0584761798945389e+02 0 0 0
3169 127 3 0.0000000000000000e+00 -1.0285043949840849e+02 -3.3789218182046589e+01 -1.0702214921524612e+02 0 0 0
2230 90 2 0.0000000000000000e+00 -1.0407282145538861e+02 -4.1129074930618138e+01 -9.5088998665442460e+01 0 0 0
3171 127 4 0.0000000000000000e+00 -9.1406486017878308e+01 -3.7290731451710322e+01 -1.0855868567208763e+02 0 0 0
2226 90 1 0.0000000000000000e+00 -9.4993133628018768e+01 -3.5527551867804391e+01 -9.8886823581969139e+01 0 0 0
3164 127 4 0.0000000000000000e+00 -7.8634115667568281e+01 -3.1761824480957717e+01 -1.0809599956773984e+02 0 0 0
2227 90 2 0.0000000000000000e+00 -8.5942641865545070e+01 -3.9942910939598129e+01 -9.9847092250406035e+01 0 0 0
3163 127 3 0.0000000000000000e+00 -7.6737561867896531e+01 -4.1289655044070933e+01 -1.0514919825567991e+02 0 0 0
589 24 2 0.0000000000000000e+00 -6.8098461879139549e+01 -3.2520473579542987e+01 -1.0250202933271784e+02 0 0 0
4463 179 3 0.0000000000000000e+00 -7.2730439108284756e+01 -3.7889249886870829e+01 -9.5386972511220691e+01 0 0 0
579 24 2 0.0000000000000000e+00 -5.6509440911079480e+01 -4.4648394440284761e+01 -9.8330105364521657e+01 0 0 0
580 24 2 0.0000000000000000e+00 -5.6076915473420591e+01 -4.1871357804678603e+01 -1.0757415672190363e+02 0 0 0
2058 83 2 0.0000000000000000e+00 -4.9261174131219029e+01 -3.3546596761228685e+01 -1.0485317666883320e+02 0 0 0
1069 43 1 0.0000000000000000e+00 -4.3808691237999426e+01 -4.2154467523917489e+01 -1.0504879761878620e+02 0 0 0
1068 43 2 0.0000000000000000e+00 -4.0824076769434207e+01 -4.1525391420384864e+01 -9.4729751005818670e+01 0 0 0
4943 198 4 0.0000000000000000e+00 -3.0891138913096331e+01 -3.8965754910623119e+01 -1.0106005589416742e+02 0 0 0
4942 198 4 0.0000000000000000e+00 -2.4261230631260222e+01 -3.4147113661922262e+01 -9.4699900358007383e+01 0 0 0
3289 132 4 0.0000000000000000e+00 -1.1218823593439801e+01 -4.1091225416230621e+01 -9.7295478762696305e+01 0 0 0
59 3 2 0.0000000000000000e+00 -9.1476158842036914e-01 -3.5272529839823534e+01 -1.0471338621255917e+02 0 0 0
3168 127 4 0.0000000000000000e+00 -1.0546554687628146e+02 -2.4336199849392401e+01 -1.0586773315124685e+02 0 0 0
1174 47 2 0.0000000000000000e+00 -8.9768576797348913e+01 -2.5230162121020719e+01 -1.0269157226789272e+02 0 0 0
3167 127 4 0.0000000000000000e+00 -9.7579565451341935e+01 -1.7884099723868363e+01 -1.0743250157973931e+02 0 0 0
2232 90 1 0.0000000000000000e+00 -9.8496197290510537e+01 -2.7209360895852825e+01 -9.5820581539719058e+01 0 0 0
4462 179 4 0.0000000000000000e+00 -7.7148611833497625e+01 -2.8893551132503340e+01 -9.5567792731645653e+01 0 0 0
4399 176 4 0.0000000000000000e+00 -5.9176471345960678e+01 -2.6393958187796549e+01 -1.0519881147180135e+02 0 0 0
2057 83 1 0.0000000000000000e+00 -5.1050005665732400e+01 -2.6371461284602134e+01 -9.8145092634424273e+01 0 0 0
4397 176 4 0.0000000000000000e+00 -4.3263453198254020e+01 -1.7888080289004790e+01 -1.0381362785082213e+02 0 0 0
4396 176 4 0.0000000000000000e+00 -3.3807398623147797e+01 -2.0918068087094174e+01 -1.0658598764904649e+02 0 0 0
3267 131 4 0.0000000000000000e+00 -1.3864716727741049e+01 -2.8190249456299270e+01 -1.0478590691240075e+02 0 0 0
3266 131 4 0.0000000000000000e+00 -1.0829356755692439e+01 -2.6579077663860780e+01 -9.5083166876601936e+01 0 0 0
58 3 2 0.0000000000000000e+00 -2.3012820127659195e+00 -2.5668714717101825e+01 -1.0088804691831578e+02 0 0 0
2235 90 2 0.0000000000000000e+00 -1.0849682829190850e+02 -1.1506993716046122e+01 -1.0656950152228342e+02 0 0 0
2234 90 2 0.0000000000000000e+00 -1.0154065463021993e+02 -1.2823407539412948e+01 -9.8778622983644823e+01 0 0 0
3064 123 4 0.0000000000000000e+00 -7.9900668090694552e+01 -1.0242673986368825e+01 -1.0056496101304991e+02 0 0 0
3063 123 3 0.0000000000000000e+00 -6.9283805385135864e+01 -9.6215228905325851e+00 -1.0177293642071888e+02 0 0 0
4400 176 3 0.0000000000000000e+00 -5.8667650001862100e+01 -1.7494159121509302e+01 -1.0038095474145828e+02 0 0 0
2396 96 2 0.0000000000000000e+00 -4.0368793012682040e+01 -5.7763824274936075e+00 -1.0675043015616387e+02 0 0 0
1269 51 1 0.0000000000000000e+00 -4.5793298193581293e+01 -6.8564098357073053e+00 -9.5124519507288383e+01 0 0 0
1153 47 2 0.0000000000000000e+00 -2.5498403638449140e+01 -1.6278076757411263e+01 -1.0398567053614367e+02 0 0 0
55 3 2 0.0000000000000000e+00 -2.2217216194602820e+01 -4.8792707727143538e+00 -1.0052545260383494e+02 0 0 0
1154 47 2 0.0000000000000000e+00 -2.1004542136707627e+01 -1.7728069606474008e+01 -9.4868168534189820e+01 0 0 0
56 3 2 0.0000000000000000e+00 -1.4157164380443440e+01 -1.1276475373631859e+01 -9.8472094115851860e+01 0 0 0
57 3 1 0.0000000000000000e+00 -6.7241278811552814e+00 -1.7835371352047130e+01 -9.6932587617719264e+01 0 0 0
2713 109 3 0.0000000000000000e+00 -2.6307150959464138e+00 -8.0902110314272608e+00 -9.7992521666906015e+01 0 0 0
2714 109 4 0.0000000000000000e+00 2.7930168969944997e+00 -1.5040636315910836e+01 -1.0332214963714237e+02 0 0 0
2263 91 1 0.0000000000000000e+00 -5.0523608226169703e+00 -1.0035942553237248e+02 -8.2985663542667211e+01 0 0 0
359 15 2 0.0000000000000000e+00 -4.7956876201200963e+01 -8.9926905893470845e+01 -8.8229153760364326e+01 0 0 0
360 15 2 0.0000000000000000e+00 -4.0965136537163993e+01 -8.8541257504922527e+01 -8.1860499189205200e+01 0 0 0
2268 91 2 0.0000000000000000e+00 -2.7956681490213203e+01 -8.9937855425328706e+01 -9.1196155234455574e+01 0 0 0
3900 156 3 0.0000000000000000e+00 -1.1702020554295407e+01 -9.1729785322863933e+01 -8.4542113019720929e+01 0 0 0
2261 91 2 0.0000000000000000e+00 -2.5409185890474029e-01 -8.8824753543088477e+01 -9.3360184042994902e+01 0 0 0
2262 91 2 0.0000000000000000e+00 2.1977385565464203e+00 -9.7090725703225061e+01 -8.9381393756190178e+01 0 0 0
2267 91 2 0.0000000000000000e+00 -3.0178955960293809e+01 -8.5312575867494957e+01 -8.1991989503540012e+01 0 0 0
3898 156 4 0.0000000000000000e+00 -1.8322595366532763e+01 -7.7755760362176559e+01 -8.7724779208789585e+01 0 0 0