LAMMPS data file via write_data, version 5 Jun 2019, timestep = 360000000

5000 atoms
4 atom types
5257 bonds
3 bond types
4600 angles
2 angle types

-2.5000000000000000e+02 2.5000000000000000e+02 xlo xhi
-2.5000000000000000e+02 2.5000000000000000e+02 ylo yhi
-2.5000000000000000e+02 2.5000000000000000e+02 zlo zhi

Masses

1 1000
2 1000
3 1000
4 1000

Pair Coeffs # lj/cut

1 0.3 10
2 0.3 10
3 0.3 10
4 0.3 10

Bond Coeffs # harmonic

1 3 10
2 3 10
3 1.8 11.22

Angle Coeffs # cosine

1 2
2 2

Atoms # full

1551 63 1 0.0000000000000000e+00 -7.1001730346196297e+01 1.7285934293869158e+01 -1.9166875864158342e+02 0 0 0
1552 63 2 0.0000000000000000e+00 -6.3446420355914256e+01 2.3120289233954377e+01 -1.8858160486663411e+02 0 0 0
1553 63 2 0.0000000000000000e+00 -5.3835558121400304e+01 2.5630760059241819e+01 -1.8478298606924008e+02 0 0 0
1401 57 1 0.0000000000000000e+00 -7.1628326008559043e+01 -5.2835488349946900e+00 -1.7126021094506817e+02 0 0 0
2237 90 2 0.0000000000000000e+00 -5.8898031951460005e+01 -2.1440236730756319e+00 -1.7305577083056906e+02 0 0 0
3970 159 4 0.0000000000000000e+00 -5.3417899340969150e+01 9.5077256231923020e+00 -1.7272540216128309e+02 0 0 0
3967 159 4 0.0000000000000000e+00 -6.7278743839221278e+01 2.8529291183703666e+01 -1.7939132468091026e+02 0 0 0
3968 159 4 0.0000000000000000e+00 -6.6831772867218689e+01 1.9433659884618905e+01 -1.7426184552147208e+02 0 0 0
3966 159 4 0.0000000000000000e+00 -7.1329642849768732e+01 3.7768470731933384e+01 -1.8091146832618600e+02 0 0 0
3423 137 4 0.0000000000000000e+00 -7.1267114951924441e+01 3.6081302656428264e+01 -1.6864700441499267e+02 0 0 0
1385 56 2 0.0000000000000000e+00 -5.6343112971911978e+01 2.9154591055447174e+01 -1.7474660250999668e+02 0 0 0
1386 56 2 0.0000000000000000e+00 -6.2909116582104623e+01 3.6784930610137906e+01 -1.7460264214738456e+02 0 0 0
3275 131 3 0.0000000000000000e+00 -6.8610825082359185e+01 -6.9975839053096207e+00 -1.5966437738571898e+02 0 0 0
2236 90 2 0.0000000000000000e+00 -5.9759455982572113e+01 -9.1121447242709763e+00 -1.6512035278570693e+02 0 0 0
2235 90 2 0.0000000000000000e+00 -5.8023387381270076e+01 -1.0349205859632949e+01 -1.5545754895188415e+02 0 0 0
1402 57 2 0.0000000000000000e+00 -7.2216693356825004e+01 1.4642614260409346e+00 -1.6442913897494935e+02 0 0 0
1403 57 2 0.0000000000000000e+00 -7.2899552402943684e+01 1.1178771505425013e+01 -1.6824417478453339e+02 0 0 0
3901 157 3 0.0000000000000000e+00 -6.9425196393822219e+01 1.0152944527060585e+01 -1.5734235016491471e+02 0 0 0
2238 90 1 0.0000000000000000e+00 -6.1201609400048142e+01 3.5400268879395358e+00 -1.6443887270424869e+02 0 0 0
3969 159 3 0.0000000000000000e+00 -6.0755530880928525e+01 1.4521012089911130e+01 -1.6833200256239147e+02 0 0 0
1404 57 2 0.0000000000000000e+00 -7.2430050594657999e+01 1.9055877380827294e+01 -1.6185320621749955e+02 0 0 0
1405 57 2 0.0000000000000000e+00 -7.6475661081874179e+01 2.4806619031247987e+01 -1.5475375329079910e+02 0 0 0
3422 137 4 0.0000000000000000e+00 -6.5144324799584055e+01 2.8067990870530558e+01 -1.6788564832182590e+02 0 0 0
3902 157 4 0.0000000000000000e+00 -6.4855063382825961e+01 1.9119527069980602e+01 -1.5669764746017051e+02 0 0 0
3421 137 4 0.0000000000000000e+00 -5.5418963859139495e+01 2.5271776496414510e+01 -1.6582561363897031e+02 0 0 0
3427 138 4 0.0000000000000000e+00 -6.4206727893753595e+01 3.9024829046134549e+01 -1.6104424833771478e+02 0 0 0
3428 138 4 0.0000000000000000e+00 -5.4233370455054988e+01 3.7041619551113762e+01 -1.6161679754196183e+02 0 0 0
2234 90 2 0.0000000000000000e+00 -6.0138480893441468e+01 -1.5197325868705544e+01 -1.4729987199826115e+02 0 0 0
3273 131 4 0.0000000000000000e+00 -8.5006807112637219e+01 -8.9635970952468362e+00 -1.4638980475538179e+02 0 0 0
3274 131 4 0.0000000000000000e+00 -7.7783317867858031e+01 -7.8560707620630765e+00 -1.5401898859393543e+02 0 0 0
2240 90 2 0.0000000000000000e+00 -6.7667859384178854e+01 -1.7042091091290118e-01 -1.4714294639280291e+02 0 0 0
4478 180 4 0.0000000000000000e+00 -5.6004283558771014e+01 -3.6299185782963383e-01 -1.4216192800728012e+02 0 0 0
662 27 2 0.0000000000000000e+00 -7.8360491063272676e+01 3.2934551248557993e+00 -1.4878617671568600e+02 0 0 0
663 27 1 0.0000000000000000e+00 -7.0491889135690755e+01 9.4563988846995528e+00 -1.4653729934115196e+02 0 0 0
2239 90 2 0.0000000000000000e+00 -6.1029263315792086e+01 5.0212389220332261e+00 -1.5433145833205927e+02 0 0 0
664 27 2 0.0000000000000000e+00 -6.1553587562528953e+01 9.8284284412389429e+00 -1.4301514359558871e+02 0 0 0
1406 57 2 0.0000000000000000e+00 -7.8827925709951572e+01 2.1995492680841970e+01 -1.4508158726085645e+02 0 0 0
3903 157 4 0.0000000000000000e+00 -6.6120524258128398e+01 2.4830796669532798e+01 -1.4860102853665296e+02 0 0 0
1177 48 2 0.0000000000000000e+00 -1.0080480730767019e+02 3.1705516025014152e+01 -1.4638900414295617e+02 0 0 0
1178 48 2 0.0000000000000000e+00 -9.4446703452257765e+01 3.5680100036927954e+01 -1.5260348696723747e+02 0 0 0
2249 90 2 0.0000000000000000e+00 -8.4701415461585640e+01 3.2082619405154190e+01 -1.4382338810550135e+02 0 0 0
1179 48 2 0.0000000000000000e+00 -9.0387847146557291e+01 4.1518024848990358e+01 -1.4481161973837337e+02 0 0 0
2250 90 1 0.0000000000000000e+00 -7.7116482340759887e+01 3.6308221324293847e+01 -1.4959192733380283e+02 0 0 0
3904 157 4 0.0000000000000000e+00 -7.2289816459499249e+01 3.0407171563963775e+01 -1.4312895235704565e+02 0 0 0
3951 159 3 0.0000000000000000e+00 -6.5446593328439576e+01 3.4663377813946006e+01 -1.5170172859359127e+02 0 0 0
1183 48 2 0.0000000000000000e+00 -5.8017039359352978e+01 3.6221526762471775e+01 -1.4621244693162893e+02 0 0 0
1182 48 1 0.0000000000000000e+00 -6.5039005971411171e+01 4.2512403924172155e+01 -1.4324811895356478e+02 0 0 0
4678 188 4 0.0000000000000000e+00 -9.0388056472093680e+01 -2.7518718390503995e+01 -1.3294765998832207e+02 0 0 0
4677 188 4 0.0000000000000000e+00 -8.3503179818634891e+01 -2.0643601840403765e+01 -1.3545736962510065e+02 0 0 0
4676 188 3 0.0000000000000000e+00 -7.6348089125024515e+01 -1.3673966150179814e+01 -1.3855863652370419e+02 0 0 0
2232 90 1 0.0000000000000000e+00 -7.1702438670968391e+01 -2.3101516650104056e+01 -1.3356067877988579e+02 0 0 0
4465 179 4 0.0000000000000000e+00 -5.8435003203983193e+01 -2.6714373114009192e+01 -1.3444035578347734e+02 0 0 0
2233 90 2 0.0000000000000000e+00 -6.5211088528009867e+01 -2.0253205058552407e+01 -1.4074927548136077e+02 0 0 0
2064 83 2 0.0000000000000000e+00 -6.1220919722473070e+01 -1.5472961353638869e+01 -1.3041062594773615e+02 0 0 0
3271 131 4 0.0000000000000000e+00 -9.2463031242126661e+01 -4.4452345285543799e+00 -1.3005452992915912e+02 0 0 0
3272 131 4 0.0000000000000000e+00 -9.1605953276642197e+01 -5.4450702680028318e+00 -1.3983309090771459e+02 0 0 0
2242 90 2 0.0000000000000000e+00 -7.6852694917996388e+01 -3.5778576077286428e+00 -1.2914591123249232e+02 0 0 0
2241 90 2 0.0000000000000000e+00 -7.3145981387033885e+01 -3.7456631074997420e+00 -1.3902884348579110e+02 0 0 0
2065 83 2 0.0000000000000000e+00 -5.4580080180105391e+01 -1.0890449304981324e+01 -1.3771728592982743e+02 0 0 0
660 27 2 0.0000000000000000e+00 -8.6999677228611162e+01 6.9406594118466973e+00 -1.3288061107689978e+02 0 0 0
661 27 2 0.0000000000000000e+00 -8.4238512985038042e+01 8.6651685966380787e-01 -1.4098115125423129e+02 0 0 0
4653 187 4 0.0000000000000000e+00 -7.2186584330663294e+01 6.6264110392799029e+00 -1.2842126694349699e+02 0 0 0
4479 180 4 0.0000000000000000e+00 -6.0856528637784329e+01 2.7543551028743041e+00 -1.3396205680178596e+02 0 0 0
2908 117 4 0.0000000000000000e+00 -6.5726689476828255e+01 1.4250168423883061e+01 -1.3463114182443522e+02 0 0 0
2247 90 2 0.0000000000000000e+00 -9.8600251285214256e+01 2.3278310675919325e+01 -1.3181688607210859e+02 0 0 0
659 27 2 0.0000000000000000e+00 -8.7747450858200736e+01 1.5478543009193361e+01 -1.2766184218464920e+02 0 0 0
4654 187 4 0.0000000000000000e+00 -7.6239730582562160e+01 1.5566593409296951e+01 -1.3053082850482022e+02 0 0 0
1407 57 1 0.0000000000000000e+00 -7.8296161989732227e+01 2.4894371866931980e+01 -1.3530886619803528e+02 0 0 0
2907 117 3 0.0000000000000000e+00 -6.8926093645633600e+01 2.2964151593490822e+01 -1.2993135458196005e+02 0 0 0
2909 117 4 0.0000000000000000e+00 -5.7043829944121100e+01 1.8760605682598463e+01 -1.3758096323641010e+02 0 0 0
4486 180 4 0.0000000000000000e+00 -6.3977877168686462e+01 2.8352193172166157e+01 -1.3764063562597835e+02 0 0 0
3072 123 4 0.0000000000000000e+00 -1.0886031439715623e+02 4.0674593018845918e+01 -1.3281433238373322e+02 0 0 0
1176 48 1 0.0000000000000000e+00 -9.7394077255622321e+01 3.7254157804544839e+01 -1.3860406295688014e+02 0 0 0
3071 123 4 0.0000000000000000e+00 -1.0871060696937238e+02 3.1924174573071134e+01 -1.2759744400771338e+02 0 0 0
2248 90 2 0.0000000000000000e+00 -9.2262049113775220e+01 2.9041845972916040e+01 -1.3804672580483268e+02 0 0 0
3906 157 4 0.0000000000000000e+00 -8.5147915378149605e+01 3.6385921404295814e+01 -1.3318345439265087e+02 0 0 0
3907 157 3 0.0000000000000000e+00 -9.2380314291816219e+01 4.1709445325078512e+01 -1.2822891603811507e+02 0 0 0
3905 157 4 0.0000000000000000e+00 -7.6633230582208327e+01 3.8139701476993487e+01 -1.3788243898850968e+02 0 0 0
4485 180 4 0.0000000000000000e+00 -6.5267458765476718e+01 3.6499266638927665e+01 -1.3114170567714319e+02 0 0 0
4487 180 4 0.0000000000000000e+00 -5.6294021256364978e+01 3.1824130902556345e+01 -1.3137924469077888e+02 0 0 0
3153 127 4 0.0000000000000000e+00 -1.1834626362995613e+02 -5.6325154687166659e+01 -1.1861904466048541e+02 0 0 0
3154 127 4 0.0000000000000000e+00 -1.1317148872807732e+02 -5.1790280721271209e+01 -1.2625866005147356e+02 0 0 0
3155 127 4 0.0000000000000000e+00 -1.0689071442141110e+02 -4.4330799323035819e+01 -1.2458760006725406e+02 0 0 0
3156 127 4 0.0000000000000000e+00 -1.0038955605903436e+02 -4.2437867245978680e+01 -1.1659602111756948e+02 0 0 0
2229 90 2 0.0000000000000000e+00 -7.3041316538597783e+01 -4.2814490395979419e+01 -1.1677751456005529e+02 0 0 0
2227 90 2 0.0000000000000000e+00 -5.4944203341558072e+01 -4.2594795936419679e+01 -1.1751503207090965e+02 0 0 0
4679 188 4 0.0000000000000000e+00 -9.4585328435613192e+01 -2.9922110201913732e+01 -1.2396880973251373e+02 0 0 0
2230 90 2 0.0000000000000000e+00 -7.9704044051916114e+01 -3.5545837524843186e+01 -1.1955696001725029e+02 0 0 0
2231 90 2 0.0000000000000000e+00 -7.6766274981314453e+01 -2.9131950523415121e+01 -1.2685892102473987e+02 0 0 0
4467 179 4 0.0000000000000000e+00 -5.8897845768428454e+01 -3.1615746544205937e+01 -1.1497396619488821e+02 0 0 0
4466 179 4 0.0000000000000000e+00 -5.9398496951455712e+01 -2.7811866041317167e+01 -1.2449373342689887e+02 0 0 0
4680 188 4 0.0000000000000000e+00 -9.3446885236946429e+01 -2.6895458617960202e+01 -1.1445294780594169e+02 0 0 0
2458 99 2 0.0000000000000000e+00 -5.3679879221241109e+01 -2.1019101219068023e+01 -1.1897082090585519e+02 0 0 0
3270 131 4 0.0000000000000000e+00 -9.9776553832297026e+01 -5.8332065338366208e+00 -1.2394768862028890e+02 0 0 0
3269 131 3 0.0000000000000000e+00 -9.4251809143129719e+01 -7.8928897822854180e+00 -1.1555629121057561e+02 0 0 0
2243 90 2 0.0000000000000000e+00 -8.2872602538580566e+01 -1.5893705273677055e+00 -1.2120022560481623e+02 0 0 0
2062 83 2 0.0000000000000000e+00 -7.1685217306403075e+01 -9.6347418119973938e+00 -1.1400336525227461e+02 0 0 0
4652 187 4 0.0000000000000000e+00 -6.8649201071156284e+01 -1.0827742706519730e+00 -1.2327614664437796e+02 0 0 0
2063 83 1 0.0000000000000000e+00 -6.6765904967547868e+01 -1.2181067094353608e+01 -1.2266042438845457e+02 0 0 0
4651 187 3 0.0000000000000000e+00 -5.9780210678080508e+01 -3.9595933925384550e+00 -1.2053985421444543e+02 0 0 0
4658 187 4 0.0000000000000000e+00 -1.0185721422967244e+02 1.1988027915116158e+01 -1.1475919794510664e+02 0 0 0
2245 90 2 0.0000000000000000e+00 -9.5806147915587246e+01 7.5446710618656647e+00 -1.2628390244169942e+02 0 0 0
2244 90 1 0.0000000000000000e+00 -9.2198881684981060e+01 1.9103277180407612e+00 -1.1918517941111006e+02 0 0 0
4480 180 4 0.0000000000000000e+00 -6.2489988345492833e+01 9.1696829125175974e+00 -1.2627358396452424e+02 0 0 0
1925 77 1 0.0000000000000000e+00 -1.2399764630112364e+02 2.5899016938424975e+01 -1.2575547541087394e+02 0 0 0
3069 123 3 0.0000000000000000e+00 -1.2119732277417751e+02 1.9709818428524187e+01 -1.1638393298239470e+02 0 0 0
3070 123 4 0.0000000000000000e+00 -1.1439015816844746e+02 2.5934755251545262e+01 -1.2099578934913920e+02 0 0 0
2246 90 2 0.0000000000000000e+00 -9.9957685541782112e+01 1.6737562308375448e+01 -1.2458410634352722e+02 0 0 0
1413 57 1 0.0000000000000000e+00 -9.6739829804091443e+01 2.8001575141606541e+01 -1.2101513209030210e+02 0 0 0
1414 57 2 0.0000000000000000e+00 -1.0466598621646703e+02 2.6836474810118375e+01 -1.1543512243924792e+02 0 0 0
658 27 2 0.0000000000000000e+00 -8.6516405216841150e+01 2.5244270106605434e+01 -1.2695161188321418e+02 0 0 0
4656 187 4 0.0000000000000000e+00 -8.5453574822574836e+01 2.1197120515356513e+01 -1.1604675454954906e+02 0 0 0
4655 187 4 0.0000000000000000e+00 -7.7173017501627896e+01 2.0047199284392129e+01 -1.2152939400011016e+02 0 0 0
1408 57 2 0.0000000000000000e+00 -7.7314007790065730e+01 2.8611682199668955e+01 -1.2615922514592908e+02 0 0 0
4481 180 4 0.0000000000000000e+00 -5.8076068480319151e+01 1.8694134280297728e+01 -1.2692920951423356e+02 0 0 0
4482 180 3 0.0000000000000000e+00 -5.7505418116822447e+01 2.6491285713959314e+01 -1.2041381075474166e+02 0 0 0
376 16 1 0.0000000000000000e+00 -6.5820262169950439e+01 1.9858137884637458e+01 -1.1795516218354059e+02 0 0 0
1924 77 2 0.0000000000000000e+00 -1.2297358843313471e+02 3.3110989508879292e+01 -1.1826092744882173e+02 0 0 0
656 27 2 0.0000000000000000e+00 -9.4536833812380706e+01 3.8487837630619460e+01 -1.1791830379758851e+02 0 0 0
657 27 1 0.0000000000000000e+00 -8.5756655144998945e+01 3.4177969893112554e+01 -1.2223428155979673e+02 0 0 0
2906 117 4 0.0000000000000000e+00 -6.7480729284086706e+01 2.8756756991074443e+01 -1.2237493614004786e+02 0 0 0
1409 57 2 0.0000000000000000e+00 -7.5469287051286102e+01 2.9928845001721019e+01 -1.1629497427437076e+02 0 0 0
4484 180 4 0.0000000000000000e+00 -6.8047227680541255e+01 4.0515209990370273e+01 -1.2247212960244967e+02 0 0 0
3343 134 4 0.0000000000000000e+00 -7.5533767920541948e+01 4.2047078959666067e+01 -1.1620875100272441e+02 0 0 0
4483 180 4 0.0000000000000000e+00 -5.9360513352381950e+01 3.5927405585480948e+01 -1.2251267125910347e+02 0 0 0
3152 127 4 0.0000000000000000e+00 -1.2285168240994248e+02 -5.8827801448434926e+01 -1.0981039553109093e+02 0 0 0
3151 127 3 0.0000000000000000e+00 -1.2267440683919538e+02 -6.5927659405058549e+01 -1.0224453934445610e+02 0 0 0
741 30 2 0.0000000000000000e+00 -5.9543201788417669e+01 -5.6367893863461696e+01 -1.1280498998733748e+02 0 0 0
597 24 2 0.0000000000000000e+00 -1.4633493176679536e+02 -5.0037032651645887e+01 -1.0044035036599107e+02 0 0 0
3157 127 3 0.0000000000000000e+00 -1.0135010925668158e+02 -4.4795893624182931e+01 -1.0696907518904258e+02 0 0 0
576 24 1 0.0000000000000000e+00 -9.2425806320526434e+01 -5.0191140171743569e+01 -1.1132506041944126e+02 0 0 0
738 30 1 0.0000000000000000e+00 -8.7975956359662334e+01 -5.4483314345585057e+01 -1.0213949196250924e+02 0 0 0
577 24 2 0.0000000000000000e+00 -8.2945218781306693e+01 -4.6342888112636707e+01 -1.1071355443599894e+02 0 0 0
4475 179 3 0.0000000000000000e+00 -9.0778071508689038e+01 -4.3647139530820517e+01 -1.0436250849874895e+02 0 0 0
739 30 2 0.0000000000000000e+00 -7.8160053821668981e+01 -5.4144808265108274e+01 -1.0537218749683977e+02 0 0 0
740 30 2 0.0000000000000000e+00 -6.8918135078571964e+01 -5.3826232133430068e+01 -1.0954857912603657e+02 0 0 0
2228 90 2 0.0000000000000000e+00 -6.3983203256238617e+01 -4.4531973639423832e+01 -1.1347383572994022e+02 0 0 0
58 3 2 0.0000000000000000e+00 -5.8297997910709043e+01 -4.7338316256863735e+01 -1.0626296400994339e+02 0 0 0
578 24 2 0.0000000000000000e+00 -7.9679629502518850e+01 -3.7677822216736942e+01 -1.0725217261361287e+02 0 0 0
579 24 2 0.0000000000000000e+00 -7.2582163042971970e+01 -3.0594914078611094e+01 -1.0568838466785452e+02 0 0 0
4469 179 3 0.0000000000000000e+00 -6.9161726986545446e+01 -4.0558906513871328e+01 -1.0095710107863066e+02 0 0 0
4468 179 4 0.0000000000000000e+00 -6.2601291784869112e+01 -3.4960066277308798e+01 -1.0665380299890887e+02 0 0 0
726 30 1 0.0000000000000000e+00 -1.0194210626589829e+02 -2.0665309723124281e+01 -1.0908384092883280e+02 0 0 0
3268 131 4 0.0000000000000000e+00 -8.8224535248626765e+01 -1.4984616464750193e+01 -1.1270881782412468e+02 0 0 0
4681 188 4 0.0000000000000000e+00 -8.6668815855854646e+01 -2.6055205727983214e+01 -1.0670675139565593e+02 0 0 0
2000 80 1 0.0000000000000000e+00 -9.5177499688631229e+01 -2.3442096256136338e+01 -1.0181900676401528e+02 0 0 0
3267 131 4 0.0000000000000000e+00 -7.9928416518133702e+01 -1.8987393812882249e+01 -1.0867845479641343e+02 0 0 0
3266 131 4 0.0000000000000000e+00 -7.4408012530851508e+01 -1.9015922688941767e+01 -1.0049579147668065e+02 0 0 0
54 3 2 0.0000000000000000e+00 -6.2413032424574119e+01 -1.9339012625652138e+01 -1.0975716248609541e+02 0 0 0
55 3 2 0.0000000000000000e+00 -5.5943563825267333e+01 -2.4687633655112059e+01 -1.0315289254311456e+02 0 0 0
3066 123 4 0.0000000000000000e+00 -1.2487054227272198e+02 -6.1614845134736456e+00 -1.0220606344930773e+02 0 0 0
3065 123 4 0.0000000000000000e+00 -1.1818195747430363e+02 -1.2305880106332840e+01 -1.0473684003004036e+02 0 0 0
727 30 2 0.0000000000000000e+00 -9.7336487976070359e+01 -1.1725800372949152e+01 -1.0740004111423465e+02 0 0 0
2061 83 2 0.0000000000000000e+00 -7.6419913014846003e+01 -7.7191581845068080e-01 -1.1294155655079892e+02 0 0 0
53 3 2 0.0000000000000000e+00 -6.1254292408939264e+01 -1.0389113713055696e+01 -1.0396249763937806e+02 0 0 0
3067 123 4 0.0000000000000000e+00 -1.2638953022298091e+02 1.7972750588936386e+00 -1.0821775908823547e+02 0 0 0
3068 123 4 0.0000000000000000e+00 -1.2228057147679095e+02 9.7650148546705910e+00 -1.1346635225415613e+02 0 0 0
4659 187 4 0.0000000000000000e+00 -1.0810682039243684e+02 1.0235088769886513e+01 -1.0722297759863295e+02 0 0 0
2060 83 2 0.0000000000000000e+00 -8.2357529328739702e+01 6.9944397235995668e+00 -1.1156118371065806e+02 0 0 0
4194 168 3 0.0000000000000000e+00 -6.7938668367583531e+01 3.7680890575864154e+00 -1.0416514844198791e+02 0 0 0
4193 168 4 0.0000000000000000e+00 -7.5698452793813999e+01 9.5116784723749710e+00 -1.0140002542032100e+02 0 0 0
4195 168 4 0.0000000000000000e+00 -6.0567846865566196e+01 1.7763235784824061e+00 -1.1157478903605069e+02 0 0 0
1416 57 2 0.0000000000000000e+00 -1.1867336632607758e+02 1.6946523995835879e+01 -1.0432211600313421e+02 0 0 0
1415 57 2 0.0000000000000000e+00 -1.1178629880270516e+02 2.2556058241686010e+01 -1.0970512873978299e+02 0 0 0
4657 187 3 0.0000000000000000e+00 -9.4788946768908673e+01 1.8992277533298978e+01 -1.1349057660413588e+02 0 0 0
2059 83 2 0.0000000000000000e+00 -8.4005839950619801e+01 1.5522359587075599e+01 -1.0664647100637886e+02 0 0 0
2058 83 2 0.0000000000000000e+00 -9.2009525036793249e+01 2.0180737666868197e+01 -1.0221768893193151e+02 0 0 0
1411 57 2 0.0000000000000000e+00 -8.3467334801280543e+01 2.7531061613495041e+01 -1.0825077108490997e+02 0 0 0
377 16 2 0.0000000000000000e+00 -5.8736310775580513e+01 1.9414686122620243e+01 -1.1105386890476113e+02 0 0 0
1296 52 2 0.0000000000000000e+00 -5.5910626564385218e+01 1.5167019111321125e+01 -1.0037451460252998e+02 0 0 0
378 16 2 0.0000000000000000e+00 -5.3183585817028217e+01 2.7770342285687882e+01 -1.0952522253035337e+02 0 0 0
1923 77 2 0.0000000000000000e+00 -1.1711135541365157e+02 3.7692528861105266e+01 -1.1115215524513557e+02 0 0 0
1921 77 2 0.0000000000000000e+00 -1.0318098910700709e+02 4.2468041557426005e+01 -1.0127405833275984e+02 0 0 0
1922 77 2 0.0000000000000000e+00 -1.0814904636867830e+02 3.4816348467493526e+01 -1.0616009295024145e+02 0 0 0
1412 57 2 0.0000000000000000e+00 -9.2564228304903779e+01 2.9269135710236601e+01 -1.1244251680540015e+02 0 0 0
3344 134 3 0.0000000000000000e+00 -8.3411876676877355e+01 4.1668809096207220e+01 -1.0991346418843135e+02 0 0 0
1410 57 2 0.0000000000000000e+00 -7.4512315540702630e+01 3.0804701642248340e+01 -1.0611789462481447e+02 0 0 0
2904 117 4 0.0000000000000000e+00 -6.3227349002190692e+01 3.2888433781580616e+01 -1.0346048684807732e+02 0 0 0
2905 117 4 0.0000000000000000e+00 -6.5119910121523986e+01 2.9584831535288711e+01 -1.1274838907703085e+02 0 0 0
4155 167 4 0.0000000000000000e+00 -6.8019038183400610e+01 -8.6893112692832332e+01 -8.7290129038999169e+01 0 0 0
591 24 2 0.0000000000000000e+00 -1.0658161244290430e+02 -7.4720703186297044e+01 -9.8131417407380241e+01 0 0 0
590 24 2 0.0000000000000000e+00 -1.0350613689286371e+02 -7.7633601045960688e+01 -8.9578707195137724e+01 0 0 0
589 24 2 0.0000000000000000e+00 -9.3793268716263512e+01 -7.8517365129254415e+01 -9.0987782062704881e+01 0 0 0
588 24 1 0.0000000000000000e+00 -8.3819959659283043e+01 -7.9699945618849299e+01 -9.0451356345193830e+01 0 0 0
4157 167 3 0.0000000000000000e+00 -7.9533237752011146e+01 -7.0230794544239998e+01 -9.0080984732087643e+01 0 0 0
4156 167 4 0.0000000000000000e+00 -7.2354626238177858e+01 -7.7829028864106490e+01 -9.0568683960833170e+01 0 0 0
594 24 1 0.0000000000000000e+00 -1.2557186624579222e+02 -5.4989005617044846e+01 -9.8125965831283523e+01 0 0 0
593 24 2 0.0000000000000000e+00 -1.1573478473571127e+02 -5.7899202569537842e+01 -9.9296915280837851e+01 0 0 0
592 24 2 0.0000000000000000e+00 -1.0901650696664768e+02 -6.5083715140107003e+01 -9.6246659498189501e+01 0 0 0
4158 167 4 0.0000000000000000e+00 -8.8952807275794356e+01 -6.7359599342618367e+01 -9.2444485359661243e+01 0 0 0
737 30 2 0.0000000000000000e+00 -9.5353762272688755e+01 -5.8048245378331892e+01 -9.6076733948630661e+01 0 0 0
4472 179 4 0.0000000000000000e+00 -7.9855887596351650e+01 -6.0708463542959308e+01 -9.0131690577337693e+01 0 0 0
4471 179 4 0.0000000000000000e+00 -7.3718210587633067e+01 -5.9771981089396697e+01 -9.7724008334273947e+01 0 0 0
596 24 2 0.0000000000000000e+00 -1.4435368725523657e+02 -5.3326513171216938e+01 -9.0535022007069983e+01 0 0 0
598 24 2 0.0000000000000000e+00 -1.3967187844045185e+02 -4.4796997777495669e+01 -9.5457693021077901e+01 0 0 0
595 24 2 0.0000000000000000e+00 -1.3545197373301360e+02 -5.4310771984295585e+01 -9.5899497719725105e+01 0 0 0
735 30 2 0.0000000000000000e+00 -1.1027534173185879e+02 -4.6593308692993482e+01 -9.0178543126563028e+01 0 0 0
736 30 2 0.0000000000000000e+00 -1.0390277534511716e+02 -5.4593333484380310e+01 -9.1724735712883245e+01 0 0 0
3158 127 4 0.0000000000000000e+00 -9.7724393595666740e+01 -4.2689384476449128e+01 -9.8023446343680433e+01 0 0 0
3159 127 4 0.0000000000000000e+00 -9.5302529289848835e+01 -4.4786465808535986e+01 -8.8082924893191645e+01 0 0 0
4474 179 4 0.0000000000000000e+00 -8.2012031663137634e+01 -4.3512810095274801e+01 -9.9555447923154674e+01 0 0 0
4473 179 4 0.0000000000000000e+00 -8.2248203369027365e+01 -5.1711511186755082e+01 -9.3313881558105905e+01 0 0 0
4470 179 4 0.0000000000000000e+00 -7.2669950100660614e+01 -4.9711876573644616e+01 -9.7754909337833951e+01 0 0 0
57 3 1 0.0000000000000000e+00 -5.8987391805145300e+01 -4.1044315223491161e+01 -9.7952982042331982e+01 0 0 0
4937 198 4 0.0000000000000000e+00 -5.3231298562524373e+01 -5.0042897137916306e+01 -9.4271617744667282e+01 0 0 0
599 24 2 0.0000000000000000e+00 -1.3059916659401262e+02 -3.9923736645051839e+01 -9.6596884955680210e+01 0 0 0
600 24 1 0.0000000000000000e+00 -1.2037449830766391e+02 -4.0173537077368216e+01 -9.5554650159391144e+01 0 0 0
734 30 2 0.0000000000000000e+00 -1.0797881317374949e+02 -3.6471848148036898e+01 -9.0151132465839794e+01 0 0 0
3062 123 4 0.0000000000000000e+00 -9.9122742026183133e+01 -3.0823033172778036e+01 -9.3857526025416504e+01 0 0 0
3061 123 4 0.0000000000000000e+00 -9.0148252966181715e+01 -3.5393913752166618e+01 -9.4238967342773662e+01 0 0 0
3059 123 4 0.0000000000000000e+00 -7.5248249022930267e+01 -4.0258754024697609e+01 -8.7332445562472188e+01 0 0 0
3060 123 4 0.0000000000000000e+00 -8.0655341994780855e+01 -3.5556495189010022e+01 -9.4223447050556871e+01 0 0 0
580 24 2 0.0000000000000000e+00 -6.4695712207488228e+01 -2.8428780426310329e+01 -9.9885888135418497e+01 0 0 0
581 24 2 0.0000000000000000e+00 -6.2422962136039800e+01 -3.2245653766706745e+01 -9.0662610104668076e+01 0 0 0
56 3 2 0.0000000000000000e+00 -5.4082026218111295e+01 -3.2138813202045498e+01 -9.6569304106262095e+01 0 0 0
3064 123 4 0.0000000000000000e+00 -1.0962733393541475e+02 -1.4473707329558817e+01 -9.9330891223160734e+01 0 0 0
733 30 2 0.0000000000000000e+00 -1.1216096395689453e+02 -2.6956950408052904e+01 -8.9166737563310676e+01 0 0 0
732 30 1 0.0000000000000000e+00 -1.1776643447376985e+02 -1.8360629408025432e+01 -9.0612979686871512e+01 0 0 0
3063 123 3 0.0000000000000000e+00 -1.0463083323477791e+02 -2.3390301671699067e+01 -9.8237560594435436e+01 0 0 0
1999 80 2 0.0000000000000000e+00 -9.6573884714900871e+01 -2.1784970313343909e+01 -9.1730024520418269e+01 0 0 0
4682 188 3 0.0000000000000000e+00 -8.5281417198979995e+01 -2.1926183565238667e+01 -9.7663016112687231e+01 0 0 0
4683 188 4 0.0000000000000000e+00 -8.2695879147917495e+01 -2.6737298304839289e+01 -8.9069899997686477e+01 0 0 0
3265 131 4 0.0000000000000000e+00 -7.0567114874964545e+01 -1.9071679770102136e+01 -9.0668429652325770e+01 0 0 0
3053 123 4 0.0000000000000000e+00 -5.3279504203036240e+01 -1.7623719073425470e+01 -9.1430948966294196e+01 0 0 0
731 30 2 0.0000000000000000e+00 -1.1974930209141844e+02 -8.6485130368372101e+00 -9.0331467470520309e+01 0 0 0
730 30 2 0.0000000000000000e+00 -1.1841848604252718e+02 1.4415361695938550e-01 -9.4471384132702894e+01 0 0 0
728 30 2 0.0000000000000000e+00 -9.9870371158673279e+01 -5.6878870556475354e+00 -9.8956226426547630e+01 0 0 0
729 30 2 0.0000000000000000e+00 -1.0932978909720501e+02 -3.8033785647079021e+00 -9.5872243769133064e+01 0 0 0
4190 168 4 0.0000000000000000e+00 -9.7493211611794933e+01 -5.4549638151186128e+00 -8.8214741937070983e+01 0 0 0
52 3 2 0.0000000000000000e+00 -6.3145742343177673e+01 -1.0346071916250663e+01 -9.3953999169477143e+01 0 0 0
1292 52 2 0.0000000000000000e+00 -5.4302218614929629e+01 -3.4947978199370224e+00 -8.8657246146930703e+01 0 0 0
1418 57 2 0.0000000000000000e+00 -1.2725952502108950e+02 5.5975728364494008e+00 -9.0601701892967156e+01 0 0 0
1417 57 2 0.0000000000000000e+00 -1.2438185316760381e+02 1.3441668005641384e+01 -9.7113383935214401e+01 0 0 0
4661 187 4 0.0000000000000000e+00 -1.1735498296239865e+02 9.4942084427618010e+00 -8.9144549246655117e+01 0 0 0
4660 187 4 0.0000000000000000e+00 -1.1302649215254885e+02 1.0258106487863069e+01 -9.8416021737249565e+01 0 0 0
2056 83 2 0.0000000000000000e+00 -9.9079793303554325e+01 8.3931822949054258e+00 -8.8390931300566294e+01 0 0 0
4191 168 4 0.0000000000000000e+00 -9.0852857855666258e+01 1.6369811677656796e+00 -9.2599159987935664e+01 0 0 0
4192 168 4 0.0000000000000000e+00 -8.3799694703685290e+01 7.7097476925766877e+00 -9.6534274972608031e+01 0 0 0
1290 52 2 0.0000000000000000e+00 -7.0812101560807790e+01 8.2169601253818811e+00 -9.1096476947783088e+01 0 0 0
1291 52 2 0.0000000000000000e+00 -6.1808291549095870e+01 3.2091299554460826e+00 -9.0874835024429615e+01 0 0 0
1424 57 2 0.0000000000000000e+00 -1.2271224302415729e+02 2.5875858690287213e+01 -8.7067038759816512e+01 0 0 0
3350 134 3 0.0000000000000000e+00 -1.0669027141818380e+02 1.7557633096815621e+01 -9.9915701575437581e+01 0 0 0
3349 134 4 0.0000000000000000e+00 -1.0312381810594424e+02 2.7204355405034658e+01 -9.8770902056692123e+01 0 0 0
2057 83 1 0.0000000000000000e+00 -9.6726007891076733e+01 1.6419417253517466e+01 -9.4439681650582372e+01 0 0 0
4742 190 4 0.0000000000000000e+00 -8.8786576219580610e+01 2.2735321257039523e+01 -9.1959287482460795e+01 0 0 0
4741 190 4 0.0000000000000000e+00 -8.0160453536773332e+01 1.8420987210871498e+01 -9.6708129883620444e+01 0 0 0
4740 190 4 0.0000000000000000e+00 -7.1006755359826187e+01 2.2218487865998540e+01 -9.3473198054263591e+01 0 0 0
4739 190 4 0.0000000000000000e+00 -6.2669755194102677e+01 2.7116426958807544e+01 -9.4473181294312951e+01 0 0 0
3347 134 4 0.0000000000000000e+00 -9.6542031926514355e+01 3.5865279294125848e+01 -9.0466629367172786e+01 0 0 0
3348 134 4 0.0000000000000000e+00 -9.3466615052957991e+01 3.0969276311251733e+01 -9.8815787662476140e+01 0 0 0
1399 56 2 0.0000000000000000e+00 -8.0076457509018184e+01 2.9189177497258768e+01 -9.3194167122895166e+01 0 0 0
1398 56 2 0.0000000000000000e+00 -7.7458225212477203e+01 3.7621757427944083e+01 -9.7195433896913158e+01 0 0 0
2903 117 4 0.0000000000000000e+00 -6.1988935087674342e+01 3.9702422177584680e+01 -9.6140445133648271e+01 0 0 0
1989 80 2 0.0000000000000000e+00 -8.2201759630980234e+01 -9.2242635160581273e+01 -7.7925013765201442e+01 0 0 0
1988 80 1 0.0000000000000000e+00 -7.2109952542659826e+01 -9.3990655914488258e+01 -7.9152930162241219e+01 0 0 0
587 24 2 0.0000000000000000e+00 -7.7723142073336632e+01 -8.3606928341100797e+01 -8.3794040769551302e+01 0 0 0
4151 167 3 0.0000000000000000e+00 -7.2690408095936206e+01 -8.4009871457902577e+01 -7.4723755284742566e+01 0 0 0
4154 167 4 0.0000000000000000e+00 -5.9252263306068421e+01 -8.8855189166236372e+01 -8.2320316597624725e+01 0 0 0
1987 80 2 0.0000000000000000e+00 -6.4615291005623149e+01 -8.9874403319700590e+01 -7.4197861194359888e+01 0 0 0
1991 80 2 0.0000000000000000e+00 -8.8184657591302852e+01 -7.7794300826485511e+01 -7.3782371377829918e+01 0 0 0
1992 80 2 0.0000000000000000e+00 -9.3617087901248084e+01 -7.0219684949269350e+01 -7.8630943728937382e+01 0 0 0
586 24 2 0.0000000000000000e+00 -7.3908849476210293e+01 -7.4875954107435220e+01 -7.9808791532484975e+01 0 0 0
4152 167 4 0.0000000000000000e+00 -6.4615989440828614e+01 -8.0546273819098317e+01 -7.9186764819579651e+01 0 0 0
4153 167 4 0.0000000000000000e+00 -5.4682785440546617e+01 -8.0239835514289936e+01 -8.0169994538424078e+01 0 0 0
4160 167 4 0.0000000000000000e+00 -1.0196588830798919e+02 -5.6307614648179033e+01 -8.2455578361644456e+01 0 0 0
4159 167 4 0.0000000000000000e+00 -9.4803213836632551e+01 -6.2191667825371390e+01 -8.6299823540878819e+01 0 0 0