LAMMPS data file via write_data, version 5 Jun 2019, timestep = 390000000

5000 atoms
4 atom types
5257 bonds
3 bond types
4600 angles
2 angle types

-2.5000000000000000e+02 2.5000000000000000e+02 xlo xhi
-2.5000000000000000e+02 2.5000000000000000e+02 ylo yhi
-2.5000000000000000e+02 2.5000000000000000e+02 zlo zhi

Masses

1 1000
2 1000
3 1000
4 1000

Pair Coeffs # lj/cut

1 0.3 10
2 0.3 10
3 0.3 10
4 0.3 10

Bond Coeffs # harmonic

1 3 10
2 3 10
3 1.8 11.22

Angle Coeffs # cosine

1 2
2 2

Atoms # full

2962 119 4 0.0000000000000000e+00 -5.8152773462347129e+00 -1.2253288627195689e+01 -1.4695992289240067e+02 0 0 0
2963 119 3 0.0000000000000000e+00 1.3276179899649561e+00 -1.8877681180114461e+01 -1.4939006836157131e+02 0 0 0
1011 41 2 0.0000000000000000e+00 1.9035955438170551e+00 1.0206550446842784e+00 -1.4939473878364990e+02 0 0 0
1010 41 2 0.0000000000000000e+00 -3.8193642681732931e+00 1.8480401700087479e+00 -1.4151303137508120e+02 0 0 0
4798 192 4 0.0000000000000000e+00 -7.0439213052587604e+01 -4.7540052763308715e+01 -1.2975142190410958e+02 0 0 0
4797 192 4 0.0000000000000000e+00 -6.1688850351266431e+01 -5.2649645875418052e+01 -1.3045584133384253e+02 0 0 0
2021 81 2 0.0000000000000000e+00 -2.9741576538771323e+01 -2.6258516649152888e+01 -1.3475311892501060e+02 0 0 0
2020 81 2 0.0000000000000000e+00 -2.0231233076299620e+01 -2.8381872900961856e+01 -1.3044072394897282e+02 0 0 0
3424 137 4 0.0000000000000000e+00 -6.0566950557237389e+00 -3.7365662426426425e+01 -1.3489548378477886e+02 0 0 0
3425 137 3 0.0000000000000000e+00 -5.7705815074034037e+00 -2.7816114249693840e+01 -1.3921305712966893e+02 0 0 0
2022 81 2 0.0000000000000000e+00 -3.6635757940725476e+01 -1.9541095399900009e+01 -1.3253255292092030e+02 0 0 0
3419 137 3 0.0000000000000000e+00 -1.6479523461007808e+01 -1.5501130736726191e+01 -1.3008456697786943e+02 0 0 0
2023 81 2 0.0000000000000000e+00 -3.2175655723326550e+01 -1.0330630290081324e+01 -1.3123436967606875e+02 0 0 0
2960 119 4 0.0000000000000000e+00 -1.4036122632747270e+01 -1.6438087160294610e+00 -1.3261186097423882e+02 0 0 0
3418 137 4 0.0000000000000000e+00 -8.4311660076712691e+00 -1.0001808725323569e+01 -1.3084270439919422e+02 0 0 0
2961 119 4 0.0000000000000000e+00 -1.0723607089748098e+01 -8.0742662225191530e+00 -1.3972841062002786e+02 0 0 0
3417 137 4 0.0000000000000000e+00 3.8757765167122482e-01 -4.2281320056753531e+00 -1.3133341966041917e+02 0 0 0
2549 102 4 0.0000000000000000e+00 -5.5254347903311727e+00 -7.1633295504862218e+01 -1.1243330347099261e+02 0 0 0
2548 102 4 0.0000000000000000e+00 1.6082516422297892e+00 -7.2376019001874582e+01 -1.1947608689545069e+02 0 0 0
4796 192 4 0.0000000000000000e+00 -5.5417957842953285e+01 -5.8414573440356911e+01 -1.2511264657239580e+02 0 0 0
4795 192 4 0.0000000000000000e+00 -5.0989041872699218e+01 -6.5144044737100742e+01 -1.1869717914206262e+02 0 0 0
2228 90 2 0.0000000000000000e+00 -3.3485918621168146e+01 -5.3874339995853425e+01 -1.1659772787798948e+02 0 0 0
2227 90 2 0.0000000000000000e+00 -2.4851014821142172e+01 -5.7221744065208092e+01 -1.1249302191248752e+02 0 0 0
2550 102 3 0.0000000000000000e+00 -5.5638905761850443e+00 -6.1656133399487501e+01 -1.1297951088125896e+02 0 0 0
4800 192 3 0.0000000000000000e+00 -8.5576188331283277e+01 -4.4030573289765456e+01 -1.1602482593043455e+02 0 0 0
4799 192 4 0.0000000000000000e+00 -7.8462302514463644e+01 -4.8044428138460852e+01 -1.2192021387733863e+02 0 0 0
2230 90 2 0.0000000000000000e+00 -5.0704564697537734e+01 -4.4880183309862751e+01 -1.1416588119616397e+02 0 0 0
2229 90 2 0.0000000000000000e+00 -4.1261500305438247e+01 -4.7346595137916935e+01 -1.1550045479716734e+02 0 0 0
3099 124 4 0.0000000000000000e+00 -1.5700385288023567e+01 -4.9097157513861042e+01 -1.1817054768873039e+02 0 0 0
3100 124 3 0.0000000000000000e+00 -6.1568068518351042e+00 -5.2873637354044170e+01 -1.1904429222173877e+02 0 0 0
3423 137 4 0.0000000000000000e+00 -6.9607692240894270e+00 -3.9708616300410988e+01 -1.2485721095121308e+02 0 0 0
4898 196 4 0.0000000000000000e+00 -5.9033590036628787e+01 -2.9497219902004868e+01 -1.1397505736881446e+02 0 0 0
3421 137 4 0.0000000000000000e+00 -1.8057001483420631e+01 -2.7934906240512490e+01 -1.1815039664633348e+02 0 0 0
3422 137 4 0.0000000000000000e+00 -1.1540715033821986e+01 -3.5897647717447235e+01 -1.1594873543505129e+02 0 0 0
2803 113 4 0.0000000000000000e+00 -3.3864498965595273e+00 -2.7744328898982637e+01 -1.1874923850107710e+02 0 0 0
3420 137 4 0.0000000000000000e+00 -2.2094141172453913e+01 -2.0492171733068684e+01 -1.2323263911019866e+02 0 0 0
2018 81 2 0.0000000000000000e+00 -1.3047859319170799e+01 -1.7257473415331066e+01 -1.1934078397724187e+02 0 0 0
2019 81 1 0.0000000000000000e+00 -1.1287123807134483e+01 -2.5462435805184562e+01 -1.2602760518697789e+02 0 0 0
2804 113 4 0.0000000000000000e+00 2.6540953839943537e-01 -1.9205035459965387e+01 -1.2411900548701259e+02 0 0 0
2024 81 2 0.0000000000000000e+00 -3.0959256772213621e+01 -2.4229388353395556e+00 -1.2528058384681081e+02 0 0 0
2913 117 3 0.0000000000000000e+00 -1.9914465930879924e+01 2.2621552047846656e+00 -1.2132189734610971e+02 0 0 0
2025 81 1 0.0000000000000000e+00 -2.3914224857433204e+01 -8.2905914560299436e+00 -1.2105161148259354e+02 0 0 0
2914 117 4 0.0000000000000000e+00 -1.7150805917019351e+01 -3.0591502212620330e+00 -1.1315724616892466e+02 0 0 0
2916 117 4 0.0000000000000000e+00 -1.7724831383144857e-01 -1.0601734105601050e+01 -1.1261804278533148e+02 0 0 0
2959 119 4 0.0000000000000000e+00 -1.1063681249105045e+01 -1.2311820871628352e+00 -1.2313767486329309e+02 0 0 0
1070 43 2 0.0000000000000000e+00 -4.2205209541037148e-01 -8.7573877206302399e+01 -1.0260600688136316e+02 0 0 0
4793 192 4 0.0000000000000000e+00 -5.1557335788551427e+01 -6.7909776998536813e+01 -9.9186838017823206e+01 0 0 0
587 24 2 0.0000000000000000e+00 -8.0111163894202363e+01 -5.4505424465724964e+01 -1.0139809199247564e+02 0 0 0
4470 179 4 0.0000000000000000e+00 -6.1214211733183099e+01 -5.6204936876503545e+01 -1.0368447234510354e+02 0 0 0
4471 179 4 0.0000000000000000e+00 -6.2849134952119485e+01 -6.5353630484729351e+01 -9.9496545561695555e+01 0 0 0
4794 192 3 0.0000000000000000e+00 -4.8386503685687408e+01 -6.6966516594279398e+01 -1.0887509326248204e+02 0 0 0
2456 99 2 0.0000000000000000e+00 -4.9792774667127659e+01 -5.5585586136760604e+01 -1.1018751508170860e+02 0 0 0
2457 99 1 0.0000000000000000e+00 -4.0271364419015278e+01 -5.9438314173173595e+01 -1.0965153418431512e+02 0 0 0
2226 90 1 0.0000000000000000e+00 -1.5000740471098739e+01 -5.6319870702121506e+01 -1.1098223177642069e+02 0 0 0
588 24 1 0.0000000000000000e+00 -7.8312628187502227e+01 -4.6590441434910723e+01 -1.0730143524457580e+02 0 0 0
2232 90 1 0.0000000000000000e+00 -6.3201146127237593e+01 -4.2650738894309690e+01 -1.0232220727319276e+02 0 0 0
4469 179 3 0.0000000000000000e+00 -5.3952694597170598e+01 -5.0100574630752590e+01 -9.9517137368803105e+01 0 0 0
2455 99 2 0.0000000000000000e+00 -4.4386206892995574e+01 -4.8235041185994518e+01 -1.0608373434619531e+02 0 0 0
2458 99 2 0.0000000000000000e+00 -3.5329128241199200e+01 -5.1172467720887262e+01 -1.0571370699350662e+02 0 0 0
2459 99 2 0.0000000000000000e+00 -3.3427284262088556e+01 -4.2537234431112324e+01 -1.0051313910987133e+02 0 0 0
3098 124 4 0.0000000000000000e+00 -1.5562361909048619e+01 -4.3341459346355343e+01 -1.1007279956961179e+02 0 0 0
3097 124 4 0.0000000000000000e+00 -1.0147472549208850e+01 -4.5605112247944291e+01 -1.0235719789001708e+02 0 0 0
594 24 1 0.0000000000000000e+00 -1.1540166683461023e+02 -3.1082972641952733e+01 -9.8975793631933428e+01 0 0 0
593 24 2 0.0000000000000000e+00 -1.0691803323603527e+02 -2.7633986255267018e+01 -1.0395595397488584e+02 0 0 0
589 24 2 0.0000000000000000e+00 -7.6355414643202010e+01 -3.7111587848835491e+01 -1.0979829187643170e+02 0 0 0
590 24 2 0.0000000000000000e+00 -7.9565515041422955e+01 -2.7286661196503431e+01 -1.1001702196356909e+02 0 0 0
2231 90 2 0.0000000000000000e+00 -5.8627074167366999e+01 -3.9026853323735253e+01 -1.1094634368840883e+02 0 0 0
4897 196 4 0.0000000000000000e+00 -5.0819040878648771e+01 -2.8276388412231626e+01 -1.0866450252534442e+02 0 0 0
2454 99 2 0.0000000000000000e+00 -4.5149500884463919e+01 -3.8012321716205243e+01 -1.0799588825697953e+02 0 0 0
2453 99 2 0.0000000000000000e+00 -4.5287581998292090e+01 -3.0773381011040037e+01 -1.0035120198620373e+02 0 0 0
749 30 2 0.0000000000000000e+00 -2.7799390801789599e+01 -3.9223061130137815e+01 -1.1215877432103807e+02 0 0 0
750 30 1 0.0000000000000000e+00 -3.6454622061977560e+01 -3.4158976579561546e+01 -1.1211445745684439e+02 0 0 0
748 30 2 0.0000000000000000e+00 -2.0941534329563513e+01 -3.5141787105708914e+01 -1.0564184147007138e+02 0 0 0
2802 113 4 0.0000000000000000e+00 -1.3913178510141668e+00 -2.8754796674166407e+01 -1.0918962222894635e+02 0 0 0
2801 113 3 0.0000000000000000e+00 -2.4090657909101041e+00 -3.3359191674739357e+01 -1.0037288325607263e+02 0 0 0
592 24 2 0.0000000000000000e+00 -9.7662185624718944e+01 -2.5264967616801908e+01 -1.0742199555553940e+02 0 0 0
591 24 2 0.0000000000000000e+00 -8.7802899988883894e+01 -2.4626965334331590e+01 -1.0449562207983882e+02 0 0 0
4900 196 3 0.0000000000000000e+00 -7.2298769380883328e+01 -2.3859612106425118e+01 -1.0082856898192232e+02 0 0 0
4899 196 4 0.0000000000000000e+00 -6.6621025948532193e+01 -2.5038076675575269e+01 -1.0906156218294194e+02 0 0 0
4896 196 4 0.0000000000000000e+00 -4.3540006476415556e+01 -2.0830454838037603e+01 -1.0876685322810793e+02 0 0 0
3645 146 4 0.0000000000000000e+00 -4.6560011198444698e+01 -1.2586612504590203e+01 -1.0149101802668886e+02 0 0 0
4895 196 4 0.0000000000000000e+00 -3.3962323871759033e+01 -2.2424856428664562e+01 -1.0684709002723793e+02 0 0 0
57 3 1 0.0000000000000000e+00 -2.6092549419504753e+01 -2.1140872219140235e+01 -9.9934278266523094e+01 0 0 0
2017 81 2 0.0000000000000000e+00 -1.9395955127220446e+01 -1.3749475397329137e+01 -1.1214337375994974e+02 0 0 0
4894 196 3 0.0000000000000000e+00 -2.5014184322255520e+01 -2.5251013448498391e+01 -1.0991822219491701e+02 0 0 0
4893 196 4 0.0000000000000000e+00 -1.7474715936466396e+01 -2.2008785520480259e+01 -1.0351549641719879e+02 0 0 0
56 3 2 0.0000000000000000e+00 -1.9950419875738657e+01 -1.2572938767696154e+01 -9.9495694499691140e+01 0 0 0
265 11 2 0.0000000000000000e+00 -7.3962709290449054e+00 -2.3048238431562122e+01 -1.0094936853929350e+02 0 0 0
266 11 2 0.0000000000000000e+00 1.8069413616190300e-01 -1.8732463271783686e+01 -1.0479105119049089e+02 0 0 0
2242 90 2 0.0000000000000000e+00 -7.2232455852441078e+01 -6.7132340996713129e+00 -9.8748890886772315e+01 0 0 0
2243 90 2 0.0000000000000000e+00 -6.7891786045844142e+01 -3.6102092986960130e+00 -1.0749567230749714e+02 0 0 0
1178 48 2 0.0000000000000000e+00 -6.0492172568838932e+01 -5.3591218291915261e+00 -1.0083889137579419e+02 0 0 0
1179 48 2 0.0000000000000000e+00 -5.5262501395607771e+01 2.7819228376604077e-01 -1.0704610326552600e+02 0 0 0
2016 81 2 0.0000000000000000e+00 -2.9057173366258841e+01 -9.9150229916055341e+00 -1.1058400951441695e+02 0 0 0
2015 81 2 0.0000000000000000e+00 -3.2628681694846279e+01 -8.0418646092439583e-01 -1.0698402660855520e+02 0 0 0
3647 146 4 0.0000000000000000e+00 -2.8823621974831646e+01 -7.9062064285022249e+00 -9.9225247214498694e+01 0 0 0
2915 117 4 0.0000000000000000e+00 -7.6546138987871837e+00 -4.6936149058478369e+00 -1.0835893139559245e+02 0 0 0
4472 179 4 0.0000000000000000e+00 -6.0531227292373117e+01 -6.9995046313515431e+01 -9.0433002148116813e+01 0 0 0
586 24 2 0.0000000000000000e+00 -7.4703798903463692e+01 -5.7724646684685474e+01 -9.3387665953459532e+01 0 0 0
740 30 2 0.0000000000000000e+00 -5.7588216784223377e+01 -6.0345072830026247e+01 -8.7290978671453814e+01 0 0 0
739 30 2 0.0000000000000000e+00 -6.3858011727111503e+01 -5.6300107603957379e+01 -9.3707185237968801e+01 0 0 0
4792 192 4 0.0000000000000000e+00 -4.3908222130727694e+01 -6.4990875560297468e+01 -9.3803540302595252e+01 0 0 0
4791 192 4 0.0000000000000000e+00 -3.4754348781363312e+01 -6.4021049748752532e+01 -8.9171004174404686e+01 0 0 0
4789 192 4 0.0000000000000000e+00 -1.4895996588448439e+01 -6.3565579925783304e+01 -8.5758853487549047e+01 0 0 0
4790 192 4 0.0000000000000000e+00 -2.5038488812584646e+01 -6.4775677454377615e+01 -8.7436600901757842e+01 0 0 0
4788 192 3 0.0000000000000000e+00 -8.0102117993171902e+00 -6.3987059823771190e+01 -9.3180234652410618e+01 0 0 0
3095 124 4 0.0000000000000000e+00 -3.9791251051247825e+00 -5.5838103247394422e+01 -8.6828906800914339e+01 0 0 0
575 23 1 0.0000000000000000e+00 -1.5655600997143754e-01 -6.7008607101771304e+01 -8.5726782270350796e+01 0 0 0
4787 192 4 0.0000000000000000e+00 1.6507359308548029e+00 -6.1058624910082486e+01 -9.5952765496993919e+01 0 0 0
736 30 2 0.0000000000000000e+00 -8.6389412853527375e+01 -4.1434800312415234e+01 -9.1728179917154549e+01 0 0 0
737 30 2 0.0000000000000000e+00 -7.6838395233981160e+01 -4.0741356164093780e+01 -9.3338777935607496e+01 0 0 0
738 30 1 0.0000000000000000e+00 -6.9950882555878891e+01 -4.8578022439667926e+01 -9.5509766243855893e+01 0 0 0
4676 188 3 0.0000000000000000e+00 -6.9726267701318633e+01 -4.4115433958909648e+01 -8.5231526693023227e+01 0 0 0
2233 90 2 0.0000000000000000e+00 -6.2826928599749621e+01 -4.2134739521914618e+01 -9.2890069609154963e+01 0 0 0
4468 179 4 0.0000000000000000e+00 -4.8251374041479728e+01 -4.3295362508737973e+01 -9.4946463084495420e+01 0 0 0
2173 87 2 0.0000000000000000e+00 -4.3596225804101714e+01 -4.9179836628344852e+01 -8.7194963584949988e+01 0 0 0
2172 87 2 0.0000000000000000e+00 -3.3702736802695739e+01 -4.7746125531819871e+01 -8.9994116847981005e+01 0 0 0
2171 87 2 0.0000000000000000e+00 -2.4619751487046045e+01 -4.3589892086930334e+01 -9.1690572389518096e+01 0 0 0
2170 87 2 0.0000000000000000e+00 -1.5425039878085922e+01 -4.3315314948203095e+01 -8.8217573870067582e+01 0 0 0
3096 124 4 0.0000000000000000e+00 -5.4163524934067180e+00 -5.1836339413648474e+01 -9.5964100674130748e+01 0 0 0
595 24 2 0.0000000000000000e+00 -1.2199864168244814e+02 -2.9202742413764799e+01 -9.1207643433484236e+01 0 0 0
3827 154 4 0.0000000000000000e+00 -1.1059675504872196e+02 -2.8410179183968133e+01 -8.6958314448314809e+01 0 0 0
735 30 2 0.0000000000000000e+00 -9.5289964130606791e+01 -3.7877337780851192e+01 -8.8757274128275967e+01 0 0 0
2234 90 2 0.0000000000000000e+00 -6.0526912154947482e+01 -3.5573310555949568e+01 -8.5822724022326597e+01 0 0 0
4467 179 4 0.0000000000000000e+00 -4.6933047548406897e+01 -3.3598599682186880e+01 -9.0393815011949968e+01 0 0 0
2460 99 2 0.0000000000000000e+00 -3.7534167022799672e+01 -3.6949184198213686e+01 -9.3204944051655986e+01 0 0 0
747 30 2 0.0000000000000000e+00 -1.9687347852846663e+01 -3.2112384545944657e+01 -9.6684874964084358e+01 0 0 0
746 30 2 0.0000000000000000e+00 -2.2965823086391037e+01 -3.0013307275683847e+01 -8.7401513548739374e+01 0 0 0
263 11 1 0.0000000000000000e+00 -2.3012814677951030e+00 -3.5482086346509206e+01 -8.8786725416513192e+01 0 0 0
264 11 2 0.0000000000000000e+00 -7.6013587566009333e+00 -2.8482545839964782e+01 -9.2301509565940961e+01 0 0 0
2279 92 2 0.0000000000000000e+00 -1.3691017109589365e+02 -1.3314769650437727e+01 -8.6098923166606525e+01 0 0 0
3826 154 3 0.0000000000000000e+00 -1.1664352987436156e+02 -2.0630312454119938e+01 -8.9689173910256443e+01 0 0 0
2056 83 2 0.0000000000000000e+00 -1.0352672595383775e+02 -1.5444475211643979e+01 -9.1264227497192707e+01 0 0 0
2240 90 2 0.0000000000000000e+00 -8.2878226927003368e+01 -2.1575136433407870e+01 -9.2931809339683795e+01 0 0 0
2239 90 2 0.0000000000000000e+00 -8.9930519086487664e+01 -2.2476669888270472e+01 -8.5881792908221442e+01 0 0 0
2241 90 2 0.0000000000000000e+00 -7.8421988581317038e+01 -1.4028333247816592e+01 -9.7153203454278128e+01 0 0 0
2451 99 1 0.0000000000000000e+00 -5.2959493125134244e+01 -1.5681701375698843e+01 -9.1381277640934940e+01 0 0 0
2452 99 2 0.0000000000000000e+00 -5.1447929201624866e+01 -2.4108899061528131e+01 -9.6446677097042937e+01 0 0 0
60 3 2 0.0000000000000000e+00 -4.8520921525841324e+01 -2.3798475371614749e+01 -8.6975779018616564e+01 0 0 0
3646 146 4 0.0000000000000000e+00 -3.7558333709692626e+01 -1.3080843586762045e+01 -9.8046799317876506e+01 0 0 0
59 3 2 0.0000000000000000e+00 -3.9331619036746496e+01 -2.0746489513476043e+01 -8.9361595578041332e+01 0 0 0
58 3 2 0.0000000000000000e+00 -3.0122858684327827e+01 -2.3191198137766875e+01 -9.1595494870981369e+01 0 0 0
4892 196 4 0.0000000000000000e+00 -1.6112058029561222e+01 -2.0735865143999064e+01 -9.3759360861899538e+01 0 0 0
2817 113 4 0.0000000000000000e+00 -1.3055676780404892e+00 -1.7901901512783901e+01 -9.0015263164821746e+01 0 0 0
2278 92 2 0.0000000000000000e+00 -1.3276280863066535e+02 -4.5766122995263752e+00 -8.5576811586618476e+01 0 0 0
2277 92 2 0.0000000000000000e+00 -1.3710457029934031e+02 1.8025725308368596e+00 -9.2323035821698099e+01 0 0 0
2057 83 1 0.0000000000000000e+00 -1.1231365982559636e+02 -1.0462402362651746e+01 -8.9747792319027212e+01 0 0 0
2058 83 2 0.0000000000000000e+00 -1.1124266242007970e+02 -1.1555291861590624e+00 -8.7423547120543873e+01 0 0 0
2055 83 2 0.0000000000000000e+00 -9.7670350827864908e+01 -7.3684131856442630e+00 -8.7934738377230119e+01 0 0 0
4193 168 4 0.0000000000000000e+00 -8.6422164870749015e+01 5.5237189397206655e-02 -9.8160929178156636e+01 0 0 0
4194 168 3 0.0000000000000000e+00 -7.9992287646659292e+01 -4.3117148310437061e+00 -9.1867937413063771e+01 0 0 0
1177 48 2 0.0000000000000000e+00 -6.5239522050015438e+01 -6.5390441100554639e+00 -9.1510857803367998e+01 0 0 0
3644 146 3 0.0000000000000000e+00 -4.8459578481531096e+01 -5.4935965315763831e+00 -9.4768560503648601e+01 0 0 0
3051 123 3 0.0000000000000000e+00 -3.1383358280330633e+01 -3.8183375182674428e+00 -8.9584555630536158e+01 0 0 0
3648 146 4 0.0000000000000000e+00 -2.1503666109167959e+01 -3.7012887447884846e+00 -9.2865968568983604e+01 0 0 0
55 3 2 0.0000000000000000e+00 -1.2783155739872129e+01 -5.8851419150854545e+00 -9.7294653473987694e+01 0 0 0
54 3 2 0.0000000000000000e+00 -5.3600740583521098e+00 -6.1492910308978637e+00 -9.1054741555252264e+01 0 0 0
2380 96 2 0.0000000000000000e+00 -5.3697386236743061e-01 4.4488291898459403e-01 -9.7103450982196080e+01 0 0 0
4473 179 4 0.0000000000000000e+00 -5.4162616915224547e+01 -7.3535455256118098e+01 -8.3388124895986678e+01 0 0 0
4474 179 4 0.0000000000000000e+00 -4.7137629838215979e+01 -7.8021967879963455e+01 -7.7368962879250375e+01 0 0 0
4475 179 3 0.0000000000000000e+00 -3.9356927528089400e+01 -7.2079446999856216e+01 -7.9936893978312526e+01 0 0 0
2796 112 4 0.0000000000000000e+00 9.7347397790218193e-01 -7.5855347890413171e+01 -7.7853984662357050e+01 0 0 0
2797 112 4 0.0000000000000000e+00 -8.6136301526402246e+00 -7.2117347989130266e+01 -7.9839223776377580e+01 0 0 0
585 24 2 0.0000000000000000e+00 -7.2704711325211946e+01 -5.7281377580836107e+01 -8.3664008211608120e+01 0 0 0
584 24 2 0.0000000000000000e+00 -7.1632150636435057e+01 -5.4868521096914037e+01 -7.3839247212751857e+01 0 0 0
2175 87 1 0.0000000000000000e+00 -5.9598870049831163e+01 -5.6083400322938999e+01 -7.8140038170038949e+01 0 0 0
741 30 2 0.0000000000000000e+00 -4.9783277258100782e+01 -6.3456233200423640e+01 -8.1394938189735100e+01 0 0 0
742 30 2 0.0000000000000000e+00 -4.3423930280137128e+01 -5.6392290943388069e+01 -7.9549105424889333e+01 0 0 0
2798 112 4 0.0000000000000000e+00 -1.4730718274614015e+01 -6.5790353241186054e+01 -7.3907159570984632e+01 0 0 0
3094 124 3 0.0000000000000000e+00 -8.9831149755121387e-01 -5.7470530381096928e+01 -7.7699293122702500e+01 0 0 0
3829 154 4 0.0000000000000000e+00 -1.1453836417648775e+02 -4.2255963250348479e+01 -7.2572476624024873e+01 0 0 0
733 30 2 0.0000000000000000e+00 -1.0330772483204294e+02 -4.0630843674812141e+01 -7.5155812397046034e+01 0 0 0
3063 123 3 0.0000000000000000e+00 -7.6752704243221373e+01 -4.1526218317137747e+01 -7.1957670165529919e+01 0 0 0
63 3 1 0.0000000000000000e+00 -6.5575538015449169e+01 -4.1491334636227315e+01 -7.5715310885791411e+01 0 0 0
2174 87 2 0.0000000000000000e+00 -5.3062444007342883e+01 -5.1347454719115454e+01 -8.4429086478575130e+01 0 0 0
4926 198 3 0.0000000000000000e+00 -5.0921881596533929e+01 -5.1779193544595451e+01 -7.3399942439019640e+01 0 0 0
743 30 2 0.0000000000000000e+00 -3.6169567885031277e+01 -4.8689538411332407e+01 -7.7453963105200216e+01 0 0 0
744 30 1 0.0000000000000000e+00 -2.7984773880584424e+01 -4.3603949963394491e+01 -7.4721786487170760e+01 0 0 0
2169 87 1 0.0000000000000000e+00 -7.2536459501534356e+00 -4.3092830102785875e+01 -8.2509099197501271e+01 0 0 0
75 3 1 0.0000000000000000e+00 -3.0282439446121496e+00 -4.7404932884693629e+01 -7.4386330610320215e+01 0 0 0
596 24 2 0.0000000000000000e+00 -1.2596051241001848e+02 -2.6170162453270382e+01 -8.2603043164215478e+01 0 0 0
597 24 2 0.0000000000000000e+00 -1.2390230915609624e+02 -3.0696892296665954e+01 -7.4184868346504203e+01 0 0 0
3828 154 4 0.0000000000000000e+00 -1.1271119862603946e+02 -3.5276356819948319e+01 -7.9735100008510088e+01 0 0 0
734 30 2 0.0000000000000000e+00 -1.0011197676085044e+02 -3.3294582987591461e+01 -8.1142824673164071e+01 0 0 0
3064 123 4 0.0000000000000000e+00 -8.6003441682854699e+01 -3.7668919332997248e+01 -7.3874848232816163e+01 0 0 0
4678 188 4 0.0000000000000000e+00 -7.9103636490052125e+01 -3.0858103819165734e+01 -7.5767319252561876e+01 0 0 0
4677 188 4 0.0000000000000000e+00 -7.2225566381012797e+01 -3.5097510251328494e+01 -8.1707342684884324e+01 0 0 0
62 3 2 0.0000000000000000e+00 -5.9009470542458693e+01 -3.4525104802281426e+01 -7.3509842960442981e+01 0 0 0
2235 90 2 0.0000000000000000e+00 -6.4404526088450808e+01 -2.8298997208387682e+01 -8.0494479980830377e+01 0 0 0
4466 179 4 0.0000000000000000e+00 -4.4430949114845774e+01 -3.7631167386919543e+01 -8.1112524356421375e+01 0 0 0
61 3 2 0.0000000000000000e+00 -5.3479421473846855e+01 -3.0056773462848248e+01 -8.0609748160607822e+01 0 0 0
4465 179 4 0.0000000000000000e+00 -4.2813759259500017e+01 -3.9000669859563750e+01 -7.1226697842631751e+01 0 0 0
2461 99 2 0.0000000000000000e+00 -3.6339735995232850e+01 -3.1626254303076458e+01 -8.4622598845694128e+01 0 0 0
2462 99 2 0.0000000000000000e+00 -3.9120080962369876e+01 -2.8974195014566082e+01 -7.5263464873366942e+01 0 0 0
745 30 2 0.0000000000000000e+00 -2.2084331570180197e+01 -3.7152334321885078e+01 -8.0791898676374487e+01 0 0 0
3087 124 4 0.0000000000000000e+00 -1.2833444610262195e+01 -3.8055135563475631e+01 -7.4072287330595273e+01 0 0 0
2168 87 2 0.0000000000000000e+00 -1.8995737528389660e+00 -3.6652502378055686e+01 -7.6134838753589861e+01 0 0 0
3088 124 3 0.0000000000000000e+00 -9.9098329359054453e+00 -3.2751549692218290e+01 -8.1636236040266667e+01 0 0 0
3089 124 4 0.0000000000000000e+00 -1.4814975303177123e+00 -2.7594853479313212e+01 -8.1880581210319036e+01 0 0 0
4171 167 4 0.0000000000000000e+00 -1.1190866516473660e+02 -2.3660228186390871e+01 -7.6633209364638347e+01 0 0 0
4172 167 4 0.0000000000000000e+00 -1.1843680473748077e+02 -1.6565619626668887e+01 -7.3333011715376202e+01 0 0 0
1298 52 2 0.0000000000000000e+00 -1.0873103801860972e+02 -1.3563075305897891e+01 -7.8524372287514510e+01 0 0 0
1299 52 2 0.0000000000000000e+00 -1.0126305061497355e+02 -2.0425756735774208e+01 -7.9857434937258731e+01 0 0 0
2238 90 1 0.0000000000000000e+00 -8.3443727793033190e+01 -1.5798872437018172e+01 -8.3899792207031780e+01 0 0 0
2237 90 2 0.0000000000000000e+00 -7.3736075087282302e+01 -1.8040144563879768e+01 -8.1407663518945171e+01 0 0 0
2236 90 2 0.0000000000000000e+00 -6.4325256773052914e+01 -1.8696649100441750e+01 -7.7373531970479050e+01 0 0 0
4887 196 4 0.0000000000000000e+00 -5.1951337315727486e+01 -2.2586587574682753e+01 -7.5152511791688667e+01 0 0 0
4889 196 4 0.0000000000000000e+00 -3.6221638309480383e+01 -1.9326872414430252e+01 -7.6084596700104768e+01 0 0 0
4890 196 4 0.0000000000000000e+00 -2.6984329489709594e+01 -1.7067830466914728e+01 -7.8386203919258804e+01 0 0 0
4891 196 4 0.0000000000000000e+00 -1.9572206927893788e+01 -2.0842247106255499e+01 -8.4382267720037959e+01 0 0 0
2819 113 3 0.0000000000000000e+00 -1.4593399298304513e+01 -2.0745774814365095e+01 -7.5551015482140954e+01 0 0 0
2818 113 4 0.0000000000000000e+00 -7.8219017282920120e+00 -1.7364136451926640e+01 -8.2804540129743501e+01 0 0 0
4949 198 4 0.0000000000000000e+00 6.5449834099872295e-01 -1.3107010941774041e+01 -7.7991305505267292e+01 0 0 0
2280 92 2 0.0000000000000000e+00 -1.3654168504876102e+02 -1.1433916061006547e+01 -7.5933797176122198e+01 0 0 0
2281 92 2 0.0000000000000000e+00 -1.3176192402669957e+02 -3.4412677186246019e+00 -7.2242181842317805e+01 0 0 0
4180 168 4 0.0000000000000000e+00 -1.2356348144726252e+02 6.3745342409221217e-01 -8.2242621289938825e+01 0 0 0
4179 168 4 0.0000000000000000e+00 -1.1732423786178401e+02 -2.5646314349442951e+00 -7.4810674325678889e+01 0 0 0
1300 52 1 0.0000000000000000e+00 -9.7745904218108805e+01 -1.1435359580760005e+01 -7.7965685237513014e+01 0 0 0
1297 52 2 0.0000000000000000e+00 -1.0520655910019231e+02 -3.7554502404815935e+00 -7.9494688527799099e+01 0 0 0
3275 131 3 0.0000000000000000e+00 -8.4155291340139030e+01 -1.1527521702365954e+01 -7.2867069522275671e+01 0 0 0
2054 83 2 0.0000000000000000e+00 -8.9923583872415747e+01 -5.3301017413611724e+00 -8.1615167404190871e+01 0 0 0
2053 83 2 0.0000000000000000e+00 -8.7173871365017391e+01 -4.4241833230132688e-01 -7.2964465420792223e+01 0 0 0
1176 48 1 0.0000000000000000e+00 -7.2252770873196553e+01 -7.8515849362906414e+00 -8.4343204126766565e+01 0 0 0
3274 131 4 0.0000000000000000e+00 -7.4708665521183406e+01 -7.7275903549853240e+00 -7.3285922585748651e+01 0 0 0
4195 168 4 0.0000000000000000e+00 -7.6961962103532187e+01 1.2371671685944112e+00 -8.3548964575714024e+01 0 0 0
4196 168 4 0.0000000000000000e+00 -6.8660696605566358e+01 8.6925957758706662e-01 -7.7808586988787312e+01 0 0 0
3052 123 4 0.0000000000000000e+00 -3.1246423530475752e+01 -6.9938108666202412e+00 -7.9749284522724167e+01 0 0 0
3179 128 4 0.0000000000000000e+00 -1.7945354538745569e+01 -1.0191304335955772e+01 -7.2974232371611606e+01 0 0 0
3180 128 4 0.0000000000000000e+00 -1.8250273267276029e+01 -3.0408173796374038e+00 -8.0491122591216410e+01 0 0 0
53 3 2 0.0000000000000000e+00 1.4352360661027241e+00 -5.3746409088319629e+00 -8.3859090025632028e+01 0 0 0
4948 198 4 0.0000000000000000e+00 -6.9313368504906308e+00 -7.5945646337159225e+00 -7.5616894384000730e+01 0 0 0
729 30 2 0.0000000000000000e+00 -1.0270164482822759e+02 -7.4197208735141047e+01 -6.3621818985411551e+01 0 0 0
728 30 2 0.0000000000000000e+00 -9.5646152678359201e+01 -8.0158116465515846e+01 -6.0035685806503352e+01 0 0 0
727 30 2 0.0000000000000000e+00 -8.8599632049597190e+01 -7.3240972720977638e+01 -6.2466164133837289e+01 0 0 0
4929 198 4 0.0000000000000000e+00 -6.4546470204674165e+01 -7.6201526109589196e+01 -6.3249853629948106e+01 0 0 0
4928 198 4 0.0000000000000000e+00 -5.9717538149695876e+01 -6.8350562182930929e+01 -6.8469272352756064e+01 0 0 0
67 3 2 0.0000000000000000e+00 -5.5810708908254796e+01 -7.0888224774669908e+01 -5.9362139562388506e+01 0 0 0
68 3 2 0.0000000000000000e+00 -4.9311621358265057e+01 -7.3838824051762657e+01 -6.5953425845979538e+01 0 0 0
69 3 1 0.0000000000000000e+00 -4.0250347830252423e+01 -7.5683731624109583e+01 -6.9245850999332575e+01 0 0 0
567 23 2 0.0000000000000000e+00 -1.8537958548350582e+00 -7.0907477273872402e+01 -6.8496527268211736e+01 0 0 0
730 30 2 0.0000000000000000e+00 -1.0557676777069301e+02 -6.4870021157415039e+01 -6.5094627229565248e+01 0 0 0
731 30 2 0.0000000000000000e+00 -1.0395211655068289e+02 -5.5613416969456750e+01 -6.8880107611241328e+01 0 0 0
4876 196 3 0.0000000000000000e+00 -9.4113295122817192e+01 -6.0966857589019298e+01 -6.9354686780643192e+01 0 0 0
726 30 1 0.0000000000000000e+00 -8.6582157128924976e+01 -6.3368512328860021e+01 -6.1692770928872179e+01 0 0 0
4877 196 4 0.0000000000000000e+00 -9.4365763038114750e+01 -5.3883507981231880e+01 -6.2476739943965150e+01 0 0 0
583 24 2 0.0000000000000000e+00 -7.5277661284950682e+01 -5.4729252866828169e+01 -6.4340629206978946e+01 0 0 0
65 3 2 0.0000000000000000e+00 -6.1903005257792081e+01 -5.6773579016856608e+01 -6.3260221475941648e+01 0 0 0
4927 198 4 0.0000000000000000e+00 -5.2684842839031177e+01 -6.1450862232577293e+01 -6.9744155906904282e+01 0 0 0
70 3 2 0.0000000000000000e+00 -3.7172545468637573e+01 -6.6150381157405690e+01 -6.8721679347546925e+01 0 0 0
71 3 2 0.0000000000000000e+00 -3.7608280079049464e+01 -5.6145353314462518e+01 -6.8602998540280311e+01 0 0 0
72 3 2 0.0000000000000000e+00 -2.9247263971379812e+01 -5.6983929004242107e+01 -6.3663487168814797e+01 0 0 0
2799 112 4 0.0000000000000000e+00 -1.5213341343686750e+01 -6.2341112678248649e+01 -6.4774726422234664e+01 0 0 0
566 23 2 0.0000000000000000e+00 -5.2996802485340702e+00 -6.4794985168288505e+01 -6.1314078425757117e+01 0 0 0
3830 154 4 0.0000000000000000e+00 -1.1294216434341681e+02 -4.3560738734411323e+01 -6.2630656348228932e+01 0 0 0
732 30 1 0.0000000000000000e+00 -9.8611249576047058e+01 -4.6954629278708069e+01 -6.8990395234821406e+01 0 0 0
4167 167 4 0.0000000000000000e+00 -8.3758389980460450e+01 -4.0345638226768003e+01 -6.4268304239604859e+01 0 0 0
3062 123 4 0.0000000000000000e+00 -6.9504165186034186e+01 -4.2247798307665057e+01 -6.5070796027166963e+01 0 0 0
64 3 2 0.0000000000000000e+00 -6.3248549326835530e+01 -4.8924206098287080e+01 -6.9768330415213782e+01 0 0 0
3061 123 4 0.0000000000000000e+00 -6.2255806020376163e+01 -4.3293268219371981e+01 -5.7759741761405465e+01 0 0 0
73 3 2 0.0000000000000000e+00 -2.0787151952177908e+01 -5.1843106852003089e+01 -6.5746550487162125e+01 0 0 0
3086 124 4 0.0000000000000000e+00 -2.0279480298176047e+01 -3.9816216790381603e+01 -6.7334094102408628e+01 0 0 0
3085 124 4 0.0000000000000000e+00 -1.9716619122765344e+01 -4.3026165122272211e+01 -5.8017621331386515e+01 0 0 0
74 3 2 0.0000000000000000e+00 -1.1848345960978671e+01 -4.8900372549272248e+01 -6.9357201343604430e+01 0 0 0
4801 193 3 0.0000000000000000e+00 -5.8672998092346269e+00 -4.3297552960741037e+01 -5.8131077905865361e+01 0 0 0
598 24 2 0.0000000000000000e+00 -1.1999513032829962e+02 -2.6356492117216686e+01 -6.6075775496481498e+01 0 0 0