LAMMPS data file via write_data, version 5 Jun 2019, timestep = 320000000

5000 atoms
4 atom types
5252 bonds
3 bond types
4600 angles
2 angle types

-2.5000000000000000e+02 2.5000000000000000e+02 xlo xhi
-2.5000000000000000e+02 2.5000000000000000e+02 ylo yhi
-2.5000000000000000e+02 2.5000000000000000e+02 zlo zhi

Masses

1 1000
2 1000
3 1000
4 1000

Pair Coeffs # lj/cut

1 0.3 10
2 0.3 10
3 0.3 10
4 0.3 10

Bond Coeffs # harmonic

1 3 10
2 3 10
3 1.8 11.22

Angle Coeffs # cosine

1 2
2 2

Atoms # full

2961 119 4 0.0000000000000000e+00 -7.8767683933756786e+01 -7.7283031571282583e+00 -1.5327051841795463e+02 0 0 0
2960 119 4 0.0000000000000000e+00 -6.8361298858349784e+01 -9.1274357532671448e+00 -1.5135794888533493e+02 0 0 0
2959 119 4 0.0000000000000000e+00 -6.0209135581999369e+01 -1.4945820264532523e+01 -1.4989261579323897e+02 0 0 0
2958 119 4 0.0000000000000000e+00 -5.0743566041497573e+01 -1.5528809432761816e+01 -1.4696944518321172e+02 0 0 0
2957 119 3 0.0000000000000000e+00 -4.1503186140774119e+01 -1.1691994041098519e+01 -1.4621832949315919e+02 0 0 0
2956 119 4 0.0000000000000000e+00 -3.2789938756555628e+01 -7.5597494902753901e+00 -1.4269396883290423e+02 0 0 0
2236 90 2 0.0000000000000000e+00 -1.9248347262290814e+01 -1.2492434891302686e+01 -1.4852453642003044e+02 0 0 0
2237 90 2 0.0000000000000000e+00 -1.2498398829144882e+01 -7.3004583318402316e+00 -1.5434092062028199e+02 0 0 0
2056 83 2 0.0000000000000000e+00 -5.1532005673534051e+01 -4.9137413250897104e+01 -1.2910014192214237e+02 0 0 0
2166 87 2 0.0000000000000000e+00 -1.3972002887418526e+01 -5.0827505561344623e+01 -1.2996586588811610e+02 0 0 0
2051 83 1 0.0000000000000000e+00 -2.1194604785376086e+01 -3.8273824408822300e+01 -1.2932619869662688e+02 0 0 0
580 24 2 0.0000000000000000e+00 -7.3548526025095056e+00 -4.2167810957102326e+01 -1.3175216159003563e+02 0 0 0
579 24 2 0.0000000000000000e+00 -7.3175060162322660e+00 -3.7836643706939078e+01 -1.4027830169290991e+02 0 0 0
2060 83 2 0.0000000000000000e+00 -7.6809486540117831e+01 -2.2384852477673913e+01 -1.3161744153720130e+02 0 0 0
2059 83 2 0.0000000000000000e+00 -6.9830242811721519e+01 -3.0124872726505298e+01 -1.2999770380717649e+02 0 0 0
4479 180 4 0.0000000000000000e+00 -6.5230564491054380e+01 -1.9006282057454779e+01 -1.3840051205907682e+02 0 0 0
4477 180 4 0.0000000000000000e+00 -4.9301325278542805e+01 -2.9796873832768128e+01 -1.3223319343356917e+02 0 0 0
4478 180 4 0.0000000000000000e+00 -5.6886888132282053e+01 -2.4600363004613644e+01 -1.3638684992854854e+02 0 0 0
2233 90 2 0.0000000000000000e+00 -3.7705652897780190e+01 -2.8868080795771267e+01 -1.3199377060085044e+02 0 0 0
2234 90 2 0.0000000000000000e+00 -2.9785085463468320e+01 -2.4568640768448372e+01 -1.3613776862424521e+02 0 0 0
3065 123 4 0.0000000000000000e+00 -1.0443061109821013e+01 -2.0777019150764204e+01 -1.3940917159330738e+02 0 0 0
4480 180 4 0.0000000000000000e+00 -6.9408334763825053e+01 -9.3098969514500620e+00 -1.3777202892337914e+02 0 0 0
2012 81 2 0.0000000000000000e+00 -4.8022705289118377e+01 -1.4515367549117684e+01 -1.3249775158068323e+02 0 0 0
2013 81 1 0.0000000000000000e+00 -3.8906774539253888e+01 -1.5528005602964287e+01 -1.3635537984326731e+02 0 0 0
2235 90 2 0.0000000000000000e+00 -2.3881982692866021e+01 -1.7431699522499645e+01 -1.4085072296219963e+02 0 0 0
2955 119 4 0.0000000000000000e+00 -2.2949032546870662e+01 -7.0690879712008092e+00 -1.4015940513799131e+02 0 0 0
2014 81 2 0.0000000000000000e+00 -2.9950491991874568e+01 -1.2268930037633845e+01 -1.3308383468669601e+02 0 0 0
2015 81 2 0.0000000000000000e+00 -2.0457004720723784e+01 -9.8002682015071727e+00 -1.2975348366738666e+02 0 0 0
2954 119 4 0.0000000000000000e+00 -1.3359171137326875e+01 -8.7181165491521995e+00 -1.4223170706870329e+02 0 0 0
3066 123 4 0.0000000000000000e+00 -1.1686737279312768e+01 -1.3106660043068969e+01 -1.3313071125602218e+02 0 0 0
600 24 1 0.0000000000000000e+00 -3.4393172181346934e+01 -8.1039919762892879e+01 -1.2238273820514631e+02 0 0 0
3975 159 3 0.0000000000000000e+00 -7.1272767648146115e+01 -4.6136035311376709e+01 -1.1581136796274667e+02 0 0 0
2055 83 2 0.0000000000000000e+00 -4.2344397168017871e+01 -5.0476817357718588e+01 -1.2551493736563677e+02 0 0 0
2054 83 2 0.0000000000000000e+00 -3.9963115693997992e+01 -5.1550028406559868e+01 -1.1571331910716907e+02 0 0 0
2053 83 2 0.0000000000000000e+00 -3.0143782711961343e+01 -5.1851918922100666e+01 -1.1968446598260461e+02 0 0 0
2052 83 2 0.0000000000000000e+00 -2.6797664152482820e+01 -4.6628659223016619e+01 -1.2734740007636674e+02 0 0 0
2167 87 2 0.0000000000000000e+00 -1.8036913714725731e+01 -5.6913882156328569e+01 -1.2275960787518754e+02 0 0 0
2058 83 2 0.0000000000000000e+00 -6.7787577837802189e+01 -4.0062002009561787e+01 -1.2848659916474980e+02 0 0 0
3974 159 4 0.0000000000000000e+00 -7.3230444345719093e+01 -3.6592850706237812e+01 -1.1828294489828713e+02 0 0 0
2057 83 1 0.0000000000000000e+00 -5.7673501367515215e+01 -4.1647307155045482e+01 -1.2870151037012596e+02 0 0 0
4476 180 3 0.0000000000000000e+00 -4.6795409804170262e+01 -3.8987981252324118e+01 -1.2757615831796754e+02 0 0 0
4456 179 4 0.0000000000000000e+00 -5.3395712679722436e+01 -3.3396783131049602e+01 -1.2198080297594630e+02 0 0 0
4451 179 3 0.0000000000000000e+00 -2.8119279723087775e+01 -3.6636926632161043e+01 -1.2094865708832666e+02 0 0 0
3972 159 4 0.0000000000000000e+00 -8.7021093369287854e+01 -2.2328050707470169e+01 -1.2008183442474966e+02 0 0 0
3973 159 4 0.0000000000000000e+00 -7.9079999995339719e+01 -2.8625700917209738e+01 -1.2009466405395010e+02 0 0 0
4455 179 4 0.0000000000000000e+00 -5.0843825581737832e+01 -2.3833528973810736e+01 -1.2111514215838764e+02 0 0 0
2232 90 1 0.0000000000000000e+00 -4.2893725305314746e+01 -3.0846778164000849e+01 -1.2345021689739210e+02 0 0 0
4453 179 4 0.0000000000000000e+00 -3.7633146765156752e+01 -1.9815897591900814e+01 -1.2504769816255775e+02 0 0 0
4452 179 4 0.0000000000000000e+00 -3.0982613273562233e+01 -2.7358353020057674e+01 -1.2349958403384967e+02 0 0 0
3185 128 4 0.0000000000000000e+00 -2.1381031028814242e+01 -1.9602481035240167e+01 -1.2794248690094636e+02 0 0 0
4468 179 4 0.0000000000000000e+00 -2.4101820580338888e+01 -2.3407740074363268e+01 -1.1626124378211034e+02 0 0 0
3184 128 4 0.0000000000000000e+00 -1.2965969793792281e+01 -2.5190395648834105e+01 -1.2660229586448172e+02 0 0 0
3183 128 4 0.0000000000000000e+00 -8.8256973476970302e+00 -2.8378263972135059e+01 -1.1757302430876673e+02 0 0 0
3971 159 4 0.0000000000000000e+00 -9.4241936325236651e+01 -1.6192905321379371e+01 -1.2295326024999562e+02 0 0 0
3970 159 4 0.0000000000000000e+00 -9.4121133723445169e+01 -6.2567122860983115e+00 -1.2640452220620105e+02 0 0 0
2061 83 2 0.0000000000000000e+00 -7.8008444058376995e+01 -1.3667200555466437e+01 -1.2681461153200779e+02 0 0 0
2062 83 2 0.0000000000000000e+00 -8.3293786753092647e+01 -7.2501574478638107e+00 -1.2125542311090547e+02 0 0 0
2071 83 2 0.0000000000000000e+00 -7.0313151668429796e+01 -1.4290240260525888e+01 -1.1854477212226928e+02 0 0 0
2072 83 2 0.0000000000000000e+00 -6.4351306838072304e+01 -8.6532359054882875e+00 -1.2529069094035424e+02 0 0 0
2010 81 2 0.0000000000000000e+00 -5.9828653792890151e+01 -1.7693380111715705e+01 -1.1834070951365612e+02 0 0 0
2011 81 2 0.0000000000000000e+00 -5.5524524801558627e+01 -1.7026352497016031e+01 -1.2686649745926844e+02 0 0 0
4454 179 4 0.0000000000000000e+00 -4.6511266329516396e+01 -1.4980002504081520e+01 -1.2203539535882973e+02 0 0 0
3187 128 4 0.0000000000000000e+00 -3.5577508655370615e+01 -1.0080402799706272e+01 -1.1757288373199840e+02 0 0 0
3186 128 4 0.0000000000000000e+00 -2.8914140151480460e+01 -1.6027062657300966e+01 -1.2189736892348208e+02 0 0 0
4467 179 4 0.0000000000000000e+00 -1.9686693994439171e+01 -1.4286496066720769e+01 -1.1586697432096702e+02 0 0 0
2016 81 2 0.0000000000000000e+00 -1.3294326933636713e+01 -1.2712210390193244e+01 -1.2338457920159371e+02 0 0 0
599 24 2 0.0000000000000000e+00 -4.0470589035341071e+01 -8.3142477953724878e+01 -1.1443161783902940e+02 0 0 0
598 24 2 0.0000000000000000e+00 -4.0317542685973592e+01 -8.5844788225534458e+01 -1.0474179875358060e+02 0 0 0
3051 123 3 0.0000000000000000e+00 -1.9554733458566428e+01 -7.3144789970241376e+01 -1.0387722511229856e+02 0 0 0
1989 80 2 0.0000000000000000e+00 -9.2860960134887932e+01 -6.0820524937172166e+01 -1.0503787875425954e+02 0 0 0
2169 87 1 0.0000000000000000e+00 -1.9884570501987788e+01 -6.2154086195090265e+01 -1.0334007471366186e+02 0 0 0
2168 87 2 0.0000000000000000e+00 -1.7879147313779917e+01 -6.1154940935779983e+01 -1.1368276888785741e+02 0 0 0
1988 80 1 0.0000000000000000e+00 -9.0703456621530748e+01 -5.1084148200007974e+01 -1.0468042866030237e+02 0 0 0
3826 154 3 0.0000000000000000e+00 -8.4533434884151589e+01 -5.6170850299417324e+01 -1.1251194734580275e+02 0 0 0
3827 154 4 0.0000000000000000e+00 -8.1468695655130048e+01 -4.6771743867188590e+01 -1.1039234412101283e+02 0 0 0
2226 90 1 0.0000000000000000e+00 -6.6163580847168731e+01 -5.3411959873240455e+01 -1.0852831763971143e+02 0 0 0
583 24 2 0.0000000000000000e+00 -9.6560277406616066e+00 -5.0819070084584624e+01 -1.0603835406830176e+02 0 0 0
582 24 1 0.0000000000000000e+00 -5.7295921289983740e+00 -4.8778264322927313e+01 -1.1496649303490639e+02 0 0 0
3828 154 4 0.0000000000000000e+00 -8.1264926149138176e+01 -3.7562679612642164e+01 -1.0675580642074999e+02 0 0 0
2227 90 2 0.0000000000000000e+00 -6.3539038197732829e+01 -4.3547172680289414e+01 -1.0648990617946170e+02 0 0 0
2228 90 2 0.0000000000000000e+00 -6.2575794167123910e+01 -3.3902655693874060e+01 -1.0247397231131242e+02 0 0 0
4457 179 3 0.0000000000000000e+00 -4.7307548838449236e+01 -3.5798577056547082e+01 -1.1480556396858354e+02 0 0 0
4458 179 4 0.0000000000000000e+00 -4.1291780443400349e+01 -4.2018081480795182e+01 -1.0830287321394859e+02 0 0 0
4470 179 4 0.0000000000000000e+00 -3.7530953934459866e+01 -3.2388889411177260e+01 -1.0516018557916084e+02 0 0 0
2451 99 1 0.0000000000000000e+00 -2.0943241369235615e+01 -3.3170665042154205e+01 -1.0734611515736447e+02 0 0 0
2452 99 2 0.0000000000000000e+00 -1.1514665235001670e+01 -3.6998422952744178e+01 -1.0651939176528137e+02 0 0 0
3168 127 4 0.0000000000000000e+00 -9.0991952357585447e+01 -3.0709565152360287e+01 -1.0456632150970908e+02 0 0 0
3169 127 3 0.0000000000000000e+00 -8.2483200638692608e+01 -2.6709733129142741e+01 -1.0825284227437623e+02 0 0 0
2008 81 2 0.0000000000000000e+00 -7.0695313283703726e+01 -2.8276172869749768e+01 -1.0525248038431330e+02 0 0 0
2009 81 2 0.0000000000000000e+00 -6.7026834698951362e+01 -2.1882401180622431e+01 -1.1267283686712547e+02 0 0 0
2230 90 2 0.0000000000000000e+00 -4.6883422664416159e+01 -2.3836789465758951e+01 -1.0473767397954141e+02 0 0 0
2231 90 2 0.0000000000000000e+00 -4.3829417346367237e+01 -2.6289258714457315e+01 -1.1400627895063069e+02 0 0 0
4469 179 3 0.0000000000000000e+00 -3.0989575689122937e+01 -2.9556829595796216e+01 -1.1240477503280283e+02 0 0 0
3171 127 4 0.0000000000000000e+00 -8.7951860614467961e+01 -9.2586286088301240e+00 -1.0681017656501142e+02 0 0 0
3170 127 4 0.0000000000000000e+00 -8.4228527150747837e+01 -1.7925742064675763e+01 -1.0372785337593022e+02 0 0 0
2070 83 2 0.0000000000000000e+00 -7.5182984926018193e+01 -1.3093897987880736e+01 -1.1035770091149865e+02 0 0 0
1902 77 2 0.0000000000000000e+00 -6.5295040113761956e+01 -6.8612466353309571e+00 -1.1336726849842330e+02 0 0 0
4176 168 3 0.0000000000000000e+00 -6.7943321754781948e+01 -9.1830066337298675e+00 -1.0332959700353925e+02 0 0 0
1903 77 2 0.0000000000000000e+00 -5.8370552465551313e+01 -9.5655457096764618e+00 -1.0603705800069527e+02 0 0 0
4466 179 4 0.0000000000000000e+00 -2.1482947676664036e+01 -8.9817880816975091e+00 -1.0690476605665721e+02 0 0 0
701 29 1 0.0000000000000000e+00 -3.0228582309716987e+01 -4.7570211522893935e+00 -1.0994478551654903e+02 0 0 0
2460 99 2 0.0000000000000000e+00 -9.1241172617377586e+00 -1.1289232544815144e+01 -1.1243162645480119e+02 0 0 0
2461 99 2 0.0000000000000000e+00 -1.0520958549876054e+01 -5.1029813658709582e+00 -1.0473853562637900e+02 0 0 0
251 11 1 0.0000000000000000e+00 -1.1437977731019378e+01 -1.2801545643932351e+02 -9.0424997713081581e+01 0 0 0
1831 74 2 0.0000000000000000e+00 -3.3497701316870035e+01 -9.2627776947275592e+01 -9.3089773247021540e+01 0 0 0
1830 74 2 0.0000000000000000e+00 -4.2508824363790552e+01 -9.2855682646738401e+01 -8.9279674992640494e+01 0 0 0
1832 74 1 0.0000000000000000e+00 -2.3730875900184298e+01 -9.3035483206462175e+01 -9.4726054976543338e+01 0 0 0
1833 74 2 0.0000000000000000e+00 -1.4892354495979344e+01 -8.9247997417260976e+01 -9.1725783393683557e+01 0 0 0
1991 80 2 0.0000000000000000e+00 -9.4010683224143406e+01 -7.6121597903177189e+01 -9.3747122383606765e+01 0 0 0
596 24 2 0.0000000000000000e+00 -5.0682911231760720e+01 -7.8605661271202464e+01 -8.8455133977082866e+01 0 0 0
597 24 2 0.0000000000000000e+00 -4.5832094074478526e+01 -8.1999750433282927e+01 -9.6741113660606175e+01 0 0 0
1834 74 2 0.0000000000000000e+00 -1.8242596470842354e+01 -7.9701155854638671e+01 -9.1350302242124314e+01 0 0 0
1990 80 2 0.0000000000000000e+00 -9.0548341842021458e+01 -7.0363581746469606e+01 -1.0133447357282455e+02 0 0 0
3160 127 4 0.0000000000000000e+00 -7.3272223825936635e+01 -6.2953796803993818e+01 -9.1324870768350195e+01 0 0 0
2171 87 2 0.0000000000000000e+00 -3.1449322133833039e+01 -7.1876794253824158e+01 -9.0364217913051505e+01 0 0 0
2170 87 2 0.0000000000000000e+00 -2.4884573800559576e+01 -6.7322511848374930e+01 -9.6364395876270322e+01 0 0 0
3052 123 4 0.0000000000000000e+00 -1.3017736262574187e+01 -7.0135042990756446e+01 -9.7338086451344552e+01 0 0 0
3166 127 4 0.0000000000000000e+00 -9.1965093245524542e+01 -4.6289443730794005e+01 -9.3481544923254219e+01 0 0 0
1987 80 2 0.0000000000000000e+00 -8.2103317791012728e+01 -4.8607173864301210e+01 -9.9877522646934352e+01 0 0 0
1986 80 2 0.0000000000000000e+00 -7.5493928866685991e+01 -5.1667086294018418e+01 -9.3074916258561885e+01 0 0 0
3159 127 4 0.0000000000000000e+00 -6.6525221938251633e+01 -5.7649871951216880e+01 -9.6152973290008958e+01 0 0 0
3158 127 4 0.0000000000000000e+00 -5.7256150227679711e+01 -5.4769218388277821e+01 -9.3723949181645040e+01 0 0 0
585 24 2 0.0000000000000000e+00 -2.2769538643796540e+01 -5.5310636483186194e+01 -9.0860216986278488e+01 0 0 0
4460 179 4 0.0000000000000000e+00 -3.1615400214401973e+01 -4.7911194646154726e+01 -9.2958606751725199e+01 0 0 0
586 24 2 0.0000000000000000e+00 -3.2279491133268976e+01 -5.8164988827330440e+01 -8.9567327135170984e+01 0 0 0
1453 59 2 0.0000000000000000e+00 -7.0010054065383294e+00 -5.3733487727896048e+01 -8.9731819784903038e+01 0 0 0
584 24 2 0.0000000000000000e+00 -1.8350611006260422e+01 -5.2260286876377229e+01 -9.9688446772912272e+01 0 0 0
3167 127 4 0.0000000000000000e+00 -9.4015715662228089e+01 -3.8917040681425505e+01 -9.9974094730916207e+01 0 0 0
3829 154 4 0.0000000000000000e+00 -7.5190992821036232e+01 -3.7875927877694437e+01 -9.8886423472717368e+01 0 0 0
3830 154 4 0.0000000000000000e+00 -7.0268722215622034e+01 -4.0830314174989248e+01 -9.0506045859534083e+01 0 0 0
4195 168 4 0.0000000000000000e+00 -6.3226573176774792e+01 -3.3231830678549009e+01 -9.0230559666086535e+01 0 0 0
4196 168 4 0.0000000000000000e+00 -5.5595614751415432e+01 -4.0736387838661102e+01 -9.0533867084553677e+01 0 0 0
4459 179 4 0.0000000000000000e+00 -3.9114627109584625e+01 -4.4907051150298237e+01 -9.8546005047263549e+01 0 0 0
4471 179 4 0.0000000000000000e+00 -4.1700124376191773e+01 -3.2570521025191468e+01 -9.6324585663833091e+01 0 0 0
3265 131 4 0.0000000000000000e+00 -2.1203990798707981e+01 -3.9767942419375842e+01 -9.6233741312107995e+01 0 0 0
3266 131 4 0.0000000000000000e+00 -3.0817047841921401e+01 -3.6885434159515938e+01 -9.3917171066033390e+01 0 0 0
2007 81 1 0.0000000000000000e+00 -7.5938067285074851e+01 -2.2103073729215144e+01 -9.8884592336044420e+01 0 0 0
2006 81 2 0.0000000000000000e+00 -8.2481858033581318e+01 -2.1062641932152058e+01 -9.1132849206246618e+01 0 0 0
4194 168 3 0.0000000000000000e+00 -7.1040989200351234e+01 -2.7278856844491145e+01 -9.0410160514037159e+01 0 0 0
2229 90 2 0.0000000000000000e+00 -5.4640759003644682e+01 -2.8549510887677513e+01 -1.0083349314118013e+02 0 0 0
3269 131 3 0.0000000000000000e+00 -5.4345382751230886e+01 -2.7829035664658026e+01 -8.8987996202982089e+01 0 0 0
1275 51 1 0.0000000000000000e+00 -3.4042704263008289e+01 -2.1875545753941577e+01 -1.0097032167947171e+02 0 0 0
3267 131 4 0.0000000000000000e+00 -3.4060367997190788e+01 -2.8451543639342397e+01 -8.9446263504566801e+01 0 0 0
4472 179 4 0.0000000000000000e+00 -4.4092918613422981e+01 -2.3456480485201304e+01 -9.4476876193625728e+01 0 0 0
1274 51 2 0.0000000000000000e+00 -2.7067045988756693e+01 -2.8280282743847270e+01 -9.7628653233855843e+01 0 0 0
1273 51 2 0.0000000000000000e+00 -2.0104289375053664e+01 -3.0759662934657158e+01 -9.0291594329480262e+01 0 0 0
4464 179 4 0.0000000000000000e+00 -2.4603817656713883e+01 -1.8936019642398367e+01 -9.0833893966789915e+01 0 0 0
3264 131 4 0.0000000000000000e+00 -1.4763598513377918e+01 -3.1875274990176241e+01 -9.8578898621671726e+01 0 0 0
3263 131 3 0.0000000000000000e+00 -6.4623072152742429e+00 -2.7147133920477266e+01 -9.4649477482757504e+01 0 0 0
736 30 2 0.0000000000000000e+00 -1.0105241466801608e+02 -9.9583046277734208e+00 -8.9848141957389231e+01 0 0 0
2069 83 1 0.0000000000000000e+00 -7.8862254374001949e+01 -9.2602296687782921e+00 -1.0183242875541482e+02 0 0 0
2068 83 2 0.0000000000000000e+00 -8.3752230744731946e+01 -9.7179731205661657e+00 -9.3535049045440871e+01 0 0 0
1905 77 2 0.0000000000000000e+00 -6.1738181545708279e+01 -5.5312991688183351e+00 -9.0316124964563784e+01 0 0 0
3271 131 4 0.0000000000000000e+00 -6.9910889358703855e+01 -1.6278689890096551e+01 -8.9608100187428747e+01 0 0 0
4177 168 4 0.0000000000000000e+00 -7.3516038762710508e+01 -6.2467551067509115e+00 -9.4923021821204784e+01 0 0 0
1904 77 2 0.0000000000000000e+00 -5.6850555716061344e+01 -1.1559370358207268e+01 -9.6710059085630078e+01 0 0 0
703 29 2 0.0000000000000000e+00 -4.5181075042038202e+01 -8.7929879118886980e+00 -9.9462200656404562e+01 0 0 0
702 29 2 0.0000000000000000e+00 -3.5847381627073545e+01 -5.2298317614793923e+00 -1.0104184616468888e+02 0 0 0
4465 179 4 0.0000000000000000e+00 -2.6390042053889641e+01 -1.3024253991907077e+01 -9.8798851836396452e+01 0 0 0
4889 196 4 0.0000000000000000e+00 -9.2173894676217074e+00 -1.6468479472451907e+01 -9.6323036406073456e+01 0 0 0
4890 196 4 0.0000000000000000e+00 -1.6209257399262086e+01 -1.0695793339059286e+01 -9.1965558355445452e+01 0 0 0
252 11 2 0.0000000000000000e+00 -1.1839098094270856e+01 -1.2845474028785262e+02 -8.0488091297915560e+01 0 0 0
1164 47 2 0.0000000000000000e+00 -3.1990090709800779e+01 -1.1593318626145002e+02 -7.5764251147853017e+01 0 0 0
1165 47 2 0.0000000000000000e+00 -3.6120091217351259e+01 -1.0694231765787957e+02 -7.6411935179420922e+01 0 0 0
746 30 2 0.0000000000000000e+00 -9.2378908788907381e+01 -9.0444707840465654e+01 -8.0544109512027489e+01 0 0 0
747 30 2 0.0000000000000000e+00 -8.3555746837300219e+01 -9.0755780341013761e+01 -7.6120449708427500e+01 0 0 0
1829 74 2 0.0000000000000000e+00 -4.8745149209065929e+01 -8.7872116345712058e+01 -8.2408295231740098e+01 0 0 0
4876 196 3 0.0000000000000000e+00 -2.7029233311599224e+01 -9.8098059677504864e+01 -8.5510629174358073e+01 0 0 0
4877 196 4 0.0000000000000000e+00 -2.5740957660740385e+01 -9.1030651828569660e+01 -7.8315322249531519e+01 0 0 0
1992 80 2 0.0000000000000000e+00 -1.0011091609805837e+02 -7.9757558794088098e+01 -8.6709694192453270e+01 0 0 0
1993 80 2 0.0000000000000000e+00 -9.5344285436879119e+01 -7.9329103949088861e+01 -7.7763793549908314e+01 0 0 0
3155 127 4 0.0000000000000000e+00 -4.5339421134725086e+01 -7.5116843929452088e+01 -7.8971948253434164e+01 0 0 0
2172 87 2 0.0000000000000000e+00 -2.9070776329909293e+01 -7.6795544178012676e+01 -8.1387028724721347e+01 0 0 0
4878 196 4 0.0000000000000000e+00 -1.9047937950827865e+01 -8.4381686793827569e+01 -8.2441268824725611e+01 0 0 0
4879 196 4 0.0000000000000000e+00 -9.4510273400532263e+00 -8.0023143656014398e+01 -8.2645478660952605e+01 0 0 0
3164 127 4 0.0000000000000000e+00 -8.8541548711478143e+01 -6.1065559096335051e+01 -8.0104666011827334e+01 0 0 0
3161 127 4 0.0000000000000000e+00 -7.4791645605767826e+01 -6.5282260739275188e+01 -8.1703506701104715e+01 0 0 0
3162 127 4 0.0000000000000000e+00 -8.2500060588954483e+01 -6.9198816564156942e+01 -7.6144569417537497e+01 0 0 0
4676 188 3 0.0000000000000000e+00 -6.4704072806024001e+01 -6.2613012602126496e+01 -8.6024904651753715e+01 0 0 0
594 24 1 0.0000000000000000e+00 -6.5665967986468900e+01 -7.1422068681848003e+01 -7.9018930900635837e+01 0 0 0
595 24 2 0.0000000000000000e+00 -5.7759249196182978e+01 -7.2548832065471544e+01 -8.4541265548020050e+01 0 0 0
3156 127 4 0.0000000000000000e+00 -4.7050733806195097e+01 -6.7820536721033847e+01 -8.5596512453270364e+01 0 0 0
4939 198 4 0.0000000000000000e+00 -3.7887478273756358e+01 -6.7757421851135703e+01 -7.5999150730111893e+01 0 0 0
1835 74 2 0.0000000000000000e+00 -1.7461433896002259e+01 -7.0358694829204865e+01 -8.8208651743410627e+01 0 0 0
1836 74 2 0.0000000000000000e+00 -1.1407304061564457e+01 -6.1928077561983535e+01 -8.7697099242268550e+01 0 0 0
4942 198 4 0.0000000000000000e+00 -9.0147487205315127e+00 -6.7702696917213203e+01 -7.8749389867076800e+01 0 0 0
4941 198 4 0.0000000000000000e+00 -1.9055671954824867e+01 -6.8903898361968402e+01 -7.7770926263776673e+01 0 0 0
4190 168 4 0.0000000000000000e+00 -9.3117271066799333e+01 -5.0168027498398651e+01 -7.5758214193752650e+01 0 0 0
3165 127 4 0.0000000000000000e+00 -9.0426741694927856e+01 -5.2603087688703027e+01 -8.6184805811964694e+01 0 0 0
1985 80 2 0.0000000000000000e+00 -7.5157392124168027e+01 -5.3681658956797904e+01 -8.2701942188176119e+01 0 0 0
2002 81 2 0.0000000000000000e+00 -8.2967111593084482e+01 -4.5815960059193095e+01 -7.6271121042606083e+01 0 0 0
4677 188 4 0.0000000000000000e+00 -6.0377658129824987e+01 -5.3484985726988754e+01 -8.3280116791321902e+01 0 0 0
3831 154 4 0.0000000000000000e+00 -6.8306527745243613e+01 -4.7120608229266118e+01 -8.2524817950745373e+01 0 0 0
3157 127 3 0.0000000000000000e+00 -5.0869794306934807e+01 -5.8645576870887439e+01 -8.7239989008203281e+01 0 0 0
588 24 1 0.0000000000000000e+00 -4.6666919014779843e+01 -5.7433658208882420e+01 -7.6632174429749782e+01 0 0 0
4678 188 4 0.0000000000000000e+00 -5.2239958022852427e+01 -4.7414363669999972e+01 -8.3366613019149597e+01 0 0 0
587 24 2 0.0000000000000000e+00 -3.8322189725698870e+01 -5.8442282648345547e+01 -8.1600337817726412e+01 0 0 0
1270 51 2 0.0000000000000000e+00 -2.3040501807754378e+01 -5.3378738142263941e+01 -7.5417721364003441e+01 0 0 0
3292 132 4 0.0000000000000000e+00 -1.1023095244922727e+01 -5.4098002540219468e+01 -7.8121101198356556e+01 0 0 0
4191 168 4 0.0000000000000000e+00 -9.4849571170464387e+01 -4.4046710885528370e+01 -8.3368622933264660e+01 0 0 0
4192 168 4 0.0000000000000000e+00 -8.8022349846823957e+01 -3.6556598578127996e+01 -8.4576336967392493e+01 0 0 0
4836 194 4 0.0000000000000000e+00 -6.8388425230642838e+01 -3.2238053620892401e+01 -7.7609740634003415e+01 0 0 0
4679 188 4 0.0000000000000000e+00 -4.5549217348579774e+01 -4.4482238937679774e+01 -7.6739039162993905e+01 0 0 0
4197 168 4 0.0000000000000000e+00 -4.6037136267072064e+01 -4.0203615769340388e+01 -8.8175816486531900e+01 0 0 0
4199 168 4 0.0000000000000000e+00 -3.4920758027659211e+01 -4.5496235095204469e+01 -7.5812787760332483e+01 0 0 0
4198 168 4 0.0000000000000000e+00 -3.6981547364779615e+01 -3.9712744413810931e+01 -8.3897811155996280e+01 0 0 0
4461 179 4 0.0000000000000000e+00 -2.5848950150340688e+01 -4.2783646016382725e+01 -8.6240551936478440e+01 0 0 0
4462 179 4 0.0000000000000000e+00 -2.5353470543816435e+01 -3.3937328276307447e+01 -8.0814462340085129e+01 0 0 0
1451 59 1 0.0000000000000000e+00 -5.9149158257196337e+00 -3.4846074789495951e+01 -8.6999589627181010e+01 0 0 0
1271 51 2 0.0000000000000000e+00 -1.8156063993337327e+01 -4.5211179150473612e+01 -8.0060115904386976e+01 0 0 0
1272 51 2 0.0000000000000000e+00 -1.4912297975832857e+01 -3.5153490434260291e+01 -8.3245494308609793e+01 0 0 0
1452 59 2 0.0000000000000000e+00 -7.6767241472817247e+00 -4.4587514156754629e+01 -8.6096521007023426e+01 0 0 0
738 30 1 0.0000000000000000e+00 -9.9057322207936750e+01 -2.5471999239283988e+01 -8.0711606955989467e+01 0 0 0
737 30 2 0.0000000000000000e+00 -9.6827131690460405e+01 -1.8804674581081915e+01 -8.8222699920804288e+01 0 0 0
2004 81 2 0.0000000000000000e+00 -9.0874728232488920e+01 -2.9452517720150979e+01 -7.6108802641512241e+01 0 0 0
2005 81 2 0.0000000000000000e+00 -8.9222674394638275e+01 -2.5174427299059946e+01 -8.5169784820793339e+01 0 0 0
4193 168 4 0.0000000000000000e+00 -7.9186512365781510e+01 -3.1930534034519724e+01 -8.6226537629598269e+01 0 0 0
3270 131 4 0.0000000000000000e+00 -6.0900947022162448e+01 -2.0967594535316440e+01 -8.6829505421494403e+01 0 0 0
4835 194 4 0.0000000000000000e+00 -5.9525559894401049e+01 -2.8083814514900730e+01 -7.8409946826229088e+01 0 0 0
3268 131 4 0.0000000000000000e+00 -4.4319497802258873e+01 -3.0455811824208393e+01 -8.7384659153571633e+01 0 0 0
1666 67 2 0.0000000000000000e+00 -3.8700270836206954e+01 -2.3255643019623399e+01 -7.8565850761694193e+01 0 0 0
4463 179 3 0.0000000000000000e+00 -2.5578548555286904e+01 -2.3969077493292886e+01 -8.1817362802363505e+01 0 0 0
2721 109 4 0.0000000000000000e+00 -1.6476635202769909e+01 -2.0288658485853102e+01 -7.7387235771792433e+01 0 0 0
2067 83 2 0.0000000000000000e+00 -9.0586615425699222e+01 -6.4006147564372613e+00 -8.6921687542533647e+01 0 0 0
3272 131 4 0.0000000000000000e+00 -7.7326983763898198e+01 -1.2265666227669181e+01 -8.4966497522055064e+01 0 0 0
3273 131 4 0.0000000000000000e+00 -7.2682497222655840e+01 -1.4292102027662983e+01 -7.5770416015069884e+01 0 0 0
4473 179 4 0.0000000000000000e+00 -4.6773245713516836e+01 -1.6256091830134409e+01 -8.7999098103265268e+01 0 0 0
2389 96 2 0.0000000000000000e+00 -5.2468173106271998e+01 -7.2147505033099533e+00 -7.5755760818938967e+01 0 0 0
4474 179 4 0.0000000000000000e+00 -4.2102449172559190e+01 -7.4621576361385182e+00 -8.6011132565972758e+01 0 0 0
1667 67 2 0.0000000000000000e+00 -3.6868461734594099e+01 -1.8263982244383524e+01 -8.7359821486720094e+01 0 0 0
1668 67 2 0.0000000000000000e+00 -3.1910113239234867e+01 -9.7455999355203122e+00 -8.6095753180578612e+01 0 0 0
1669 67 1 0.0000000000000000e+00 -2.4021814153695338e+01 -1.2516686503301186e+01 -8.0351015634253343e+01 0 0 0
84 4 2 0.0000000000000000e+00 -1.3807196814585222e+01 -7.8493341365080305e+00 -7.8200795538861712e+01 0 0 0
254 11 2 0.0000000000000000e+00 -1.9922932016127280e+01 -1.1868012653982917e+02 -6.5787474594147852e+01 0 0 0
253 11 2 0.0000000000000000e+00 -1.6557489057688773e+01 -1.2595058046986104e+02 -7.2104740440260258e+01 0 0 0
1166 47 2 0.0000000000000000e+00 -4.2207658118809746e+01 -1.0236599864429677e+02 -7.0838739532934085e+01 0 0 0
1163 47 1 0.0000000000000000e+00 -3.0358298400219692e+01 -1.1348402380908503e+02 -6.6311213562419454e+01 0 0 0
745 30 2 0.0000000000000000e+00 -9.9035672548573658e+01 -8.7373032564736846e+01 -7.2951749343535056e+01 0 0 0
748 30 2 0.0000000000000000e+00 -8.1251028360661351e+01 -9.0461805087049555e+01 -6.6720709997751541e+01 0 0 0
1828 74 2 0.0000000000000000e+00 -5.2149403980203260e+01 -8.7834480482877552e+01 -7.2260020739788771e+01 0 0 0
4392 176 4 0.0000000000000000e+00 -1.6380462504983218e+01 -8.7650883631002557e+01 -6.7060621616419311e+01 0 0 0
744 30 1 0.0000000000000000e+00 -9.9308188185668925e+01 -7.8066049398486271e+01 -6.8317020814292277e+01 0 0 0
1994 80 1 0.0000000000000000e+00 -8.8702915988762143e+01 -7.7245746519353560e+01 -7.0725393763534072e+01 0 0 0
4935 198 4 0.0000000000000000e+00 -6.5658725117836269e+01 -8.1905270587132776e+01 -6.9955937253153863e+01 0 0 0
4934 198 4 0.0000000000000000e+00 -7.2952714295469136e+01 -8.0340965676034202e+01 -6.2591657542323219e+01 0 0 0
4936 198 4 0.0000000000000000e+00 -5.6761492162389885e+01 -7.8054619108087721e+01 -7.4249087069502039e+01 0 0 0
1827 74 2 0.0000000000000000e+00 -4.8968930744131150e+01 -8.6250005979898177e+01 -6.2966511891494051e+01 0 0 0
3154 127 4 0.0000000000000000e+00 -4.6936935027986053e+01 -7.6039477211415146e+01 -6.8936561783405836e+01 0 0 0
2173 87 2 0.0000000000000000e+00 -2.4934757884769535e+01 -8.1903730827938602e+01 -7.3808637260448705e+01 0 0 0
2174 87 2 0.0000000000000000e+00 -2.4393757044348469e+01 -7.6194574693121226e+01 -6.5522509442729003e+01 0 0 0
4391 176 4 0.0000000000000000e+00 -1.1471178230622685e+01 -7.9895584533767007e+01 -7.2447146260104361e+01 0 0 0
743 30 2 0.0000000000000000e+00 -9.6866356718897094e+01 -6.8926636790980993e+01 -6.4108916589088807e+01 0 0 0
3163 127 3 0.0000000000000000e+00 -9.2003326365047855e+01 -6.7055969205625871e+01 -7.3088312226280607e+01 0 0 0
1983 80 2 0.0000000000000000e+00 -7.6117431985138410e+01 -6.2160938718870703e+01 -6.4425416182633413e+01 0 0 0
4188 168 3 0.0000000000000000e+00 -8.6479946399916756e+01 -6.1987685842790114e+01 -6.1811556835611881e+01 0 0 0
593 24 2 0.0000000000000000e+00 -6.6871093768726269e+01 -7.1341033826186276e+01 -6.8927890822113625e+01 0 0 0
591 24 2 0.0000000000000000e+00 -6.3054484478019297e+01 -6.3007598789885868e+01 -6.4414324712260296e+01 0 0 0
4937 198 4 0.0000000000000000e+00 -5.7439027707067837e+01 -6.8777576462103724e+01 -7.1532943510747060e+01 0 0 0
4938 198 3 0.0000000000000000e+00 -4.7881607378455207e+01 -6.6547324881330795e+01 -7.2780911078817468e+01 0 0 0
149 6 2 0.0000000000000000e+00 -4.8656033342119265e+01 -6.1516792604910954e+01 -6.2614776770494863e+01 0 0 0
150 6 1 0.0000000000000000e+00 -3.9709812879453153e+01 -6.5654601299435242e+01 -6.4523514026753105e+01 0 0 0
4940 198 4 0.0000000000000000e+00 -2.8239091942713110e+01 -6.8246821055369210e+01 -7.3887282195940699e+01 0 0 0
2175 87 1 0.0000000000000000e+00 -2.8729708844011032e+01 -6.7484632773769121e+01 -6.3893235845197232e+01 0 0 0
1153 47 2 0.0000000000000000e+00 -8.5015420411136127e+00 -6.5303779720608631e+01 -6.5779485268186335e+01 0 0 0