LAMMPS data file via write_data, version 5 Jun 2019, timestep = 340000000

5000 atoms
4 atom types
5251 bonds
3 bond types
4600 angles
2 angle types

-2.5000000000000000e+02 2.5000000000000000e+02 xlo xhi
-2.5000000000000000e+02 2.5000000000000000e+02 ylo yhi
-2.5000000000000000e+02 2.5000000000000000e+02 zlo zhi

Masses

1 1000
2 1000
3 1000
4 1000

Pair Coeffs # lj/cut

1 0.3 10
2 0.3 10
3 0.3 10
4 0.3 10

Bond Coeffs # harmonic

1 3 10
2 3 10
3 1.8 11.22

Angle Coeffs # cosine

1 2
2 2

Atoms # full

2275 91 1 0.0000000000000000e+00 1.0179383511702248e+01 -4.7229057921601800e+01 -2.0032307168427653e+02 0 0 0
2922 117 4 0.0000000000000000e+00 -1.3492500384683789e+01 -2.9996371167565410e+01 -1.8283887887993325e+02 0 0 0
2921 117 4 0.0000000000000000e+00 -1.2734200172609928e+01 -2.0516449296461793e+01 -1.8522636971664403e+02 0 0 0
1119 45 1 0.0000000000000000e+00 1.9148774135699880e+00 -1.8553778502805386e+01 -1.8559772262308752e+02 0 0 0
1195 48 2 0.0000000000000000e+00 -1.7606338345891096e+01 -2.8911920138628854e+01 -1.7193443314804372e+02 0 0 0
2923 117 4 0.0000000000000000e+00 -6.4412106613527431e+00 -3.1026897092747717e+01 -1.7570039696322127e+02 0 0 0
301 13 1 0.0000000000000000e+00 -8.1180995779563517e+01 -1.7116849931653483e+01 -1.6750776270249142e+02 0 0 0
1565 63 2 0.0000000000000000e+00 -2.8243890121532804e+01 -1.3678215301396579e+01 -1.6802740125228112e+02 0 0 0
1196 48 2 0.0000000000000000e+00 -1.6398401376731147e+01 -1.8960735999971789e+01 -1.7297493482147155e+02 0 0 0
2924 117 4 0.0000000000000000e+00 -6.4046730206340952e+00 -2.2783797348444217e+01 -1.7056934601621509e+02 0 0 0
1120 45 2 0.0000000000000000e+00 2.0435668747876572e+00 -2.2811351369785932e+01 -1.7584697877465783e+02 0 0 0
1121 45 2 0.0000000000000000e+00 9.8606352806079194e+00 -1.8525638715306549e+01 -1.7140391361639414e+02 0 0 0
2001 81 1 0.0000000000000000e+00 -9.3199701451703447e+01 -6.8962703739560709e+01 -1.5508635391296278e+02 0 0 0
265 11 2 0.0000000000000000e+00 6.9530578631407787e+00 -7.8154522441097086e+01 -1.5379316221952232e+02 0 0 0
2002 81 2 0.0000000000000000e+00 -9.7065312031028256e+01 -5.9369668231718784e+01 -1.5812530473088447e+02 0 0 0
2003 81 2 0.0000000000000000e+00 -9.0472569908484758e+01 -5.4214682016474590e+01 -1.6260575889108190e+02 0 0 0
2004 81 2 0.0000000000000000e+00 -8.3726826042342978e+01 -5.0261538084715532e+01 -1.5665785499385655e+02 0 0 0
2786 112 4 0.0000000000000000e+00 6.0068534245616814e+00 -5.4203952862039799e+01 -1.5626748266949386e+02 0 0 0
1567 63 2 0.0000000000000000e+00 -3.0407596040285028e+01 -3.1490092381732229e+01 -1.5981944208860835e+02 0 0 0
1194 48 1 0.0000000000000000e+00 -1.9239273058806578e+01 -3.1179631177934588e+01 -1.6244477708205432e+02 0 0 0
1193 48 2 0.0000000000000000e+00 -2.1300505652796257e+01 -2.7119220466137424e+01 -1.5369503785424303e+02 0 0 0
3657 147 3 0.0000000000000000e+00 -1.4494782347971295e+01 -4.0264350306627101e+01 -1.5871651670243111e+02 0 0 0
3658 147 4 0.0000000000000000e+00 -5.7333519742805388e+00 -3.5784189248377139e+01 -1.5800597975654850e+02 0 0 0
1576 64 1 0.0000000000000000e+00 -8.6790713343040906e+00 -2.7596093872164012e+01 -1.6201227855497581e+02 0 0 0
3659 147 4 0.0000000000000000e+00 4.3037070618666000e+00 -3.8559293712439548e+01 -1.5866854907446768e+02 0 0 0
302 13 2 0.0000000000000000e+00 -8.7468239178918097e+01 -2.0366673427276364e+01 -1.6093400380046327e+02 0 0 0
303 13 2 0.0000000000000000e+00 -9.4942820685471517e+01 -1.5473207860947413e+01 -1.5712296660704405e+02 0 0 0
1566 63 2 0.0000000000000000e+00 -2.6506397507166085e+01 -2.3188507172879071e+01 -1.6421825425213510e+02 0 0 0
1192 48 2 0.0000000000000000e+00 -2.3282695885809503e+01 -1.8056727986839029e+01 -1.5567439767086873e+02 0 0 0
2925 117 3 0.0000000000000000e+00 -2.5974536699459851e+00 -1.7779383795569764e+01 -1.6286322079727697e+02 0 0 0
1577 64 2 0.0000000000000000e+00 9.2452430520074702e-01 -2.6456535872464904e+01 -1.6003629621347696e+02 0 0 0
267 11 2 0.0000000000000000e+00 -1.9304146249583598e+00 -8.9075780585639436e+01 -1.4056309845272364e+02 0 0 0
266 11 2 0.0000000000000000e+00 2.6137817739216604e+00 -8.2095109784333616e+01 -1.4541750012030900e+02 0 0 0
264 11 2 0.0000000000000000e+00 1.0270524079364449e+01 -6.9355816493826026e+01 -1.5039362738651212e+02 0 0 0
2163 87 1 0.0000000000000000e+00 -7.3177018926212597e+01 -6.4718886325976840e+01 -1.4424590343070446e+02 0 0 0
2162 87 2 0.0000000000000000e+00 -6.8087931593947076e+01 -5.7881920512764715e+01 -1.4793860290715202e+02 0 0 0
2778 112 4 0.0000000000000000e+00 -5.9888795007886124e+01 -6.6297881628632965e+01 -1.4154071318821806e+02 0 0 0
263 11 1 0.0000000000000000e+00 9.5841324622814028e+00 -6.0458793945213003e+01 -1.4516777562091787e+02 0 0 0
2005 81 2 0.0000000000000000e+00 -8.1404519508763912e+01 -5.3813707727705733e+01 -1.4753290276904912e+02 0 0 0
2161 87 2 0.0000000000000000e+00 -5.8783104154727397e+01 -5.3478685962107200e+01 -1.4658959891619688e+02 0 0 0
2160 87 2 0.0000000000000000e+00 -5.4460223643231423e+01 -4.6472711368347753e+01 -1.4029617839858290e+02 0 0 0
2784 112 4 0.0000000000000000e+00 -4.9636810111912855e+00 -4.7100782834235616e+01 -1.4049325480664669e+02 0 0 0
2785 112 4 0.0000000000000000e+00 -3.5947122490822425e-01 -5.2132836884699294e+01 -1.4832742423839727e+02 0 0 0
262 11 2 0.0000000000000000e+00 1.0905156957496644e+01 -5.0496537601874209e+01 -1.4419262523924147e+02 0 0 0
1568 63 2 0.0000000000000000e+00 -3.3948373360937723e+01 -2.7769887249830877e+01 -1.5061940520181849e+02 0 0 0
1569 63 1 0.0000000000000000e+00 -3.7692922776738854e+01 -3.0047651113319553e+01 -1.4165583945117061e+02 0 0 0
3656 147 4 0.0000000000000000e+00 -1.4101188240927049e+01 -3.9506147608975702e+01 -1.4838775544308521e+02 0 0 0
2054 83 2 0.0000000000000000e+00 -7.0245961531565166e+00 -3.2250321216220627e+01 -1.4187253717731224e+02 0 0 0
1143 46 2 0.0000000000000000e+00 3.6176686952464023e+00 -3.4248411232060377e+01 -1.4304817823968784e+02 0 0 0
2010 81 2 0.0000000000000000e+00 -9.9687924479929308e+01 -1.6498790967084958e+01 -1.4254293255193213e+02 0 0 0
2011 81 2 0.0000000000000000e+00 -9.1146145953410809e+01 -1.3102056479838241e+01 -1.4710422158683119e+02 0 0 0
3068 123 4 0.0000000000000000e+00 -1.6679534508961385e+01 -2.0791602480016834e+01 -1.4237901656321668e+02 0 0 0
1578 64 2 0.0000000000000000e+00 1.9720101173134583e+00 -2.4827144496671060e+01 -1.5002689111453608e+02 0 0 0
1579 64 2 0.0000000000000000e+00 1.3433476020303026e+00 -1.6832933147606376e+01 -1.4428447828881198e+02 0 0 0
268 11 2 0.0000000000000000e+00 -7.2322774021249998e+00 -9.2428227243627987e+01 -1.3249190702600021e+02 0 0 0
2165 87 2 0.0000000000000000e+00 -8.3965534122999927e+01 -7.3808162373752410e+01 -1.2924496658352379e+02 0 0 0
2164 87 2 0.0000000000000000e+00 -7.8384829990146059e+01 -7.0811446173223260e+01 -1.3753229038468720e+02 0 0 0
4947 198 4 0.0000000000000000e+00 -7.4592998939321609e+00 -7.1609236275725323e+01 -1.3014102298210918e+02 0 0 0
4948 198 4 0.0000000000000000e+00 -3.2165180373043674e+00 -8.0768212537456478e+01 -1.3036457784473245e+02 0 0 0
2776 112 3 0.0000000000000000e+00 -7.0396099941902364e+01 -5.7890118761969802e+01 -1.2626062200421848e+02 0 0 0
2777 112 4 0.0000000000000000e+00 -6.7151158023600473e+01 -6.1381889833466595e+01 -1.3606519183433360e+02 0 0 0
4458 179 4 0.0000000000000000e+00 -6.0492384494063529e+01 -5.8790703319221599e+01 -1.2944343455822741e+02 0 0 0
2779 112 4 0.0000000000000000e+00 -5.1836209096347957e+01 -6.2873934947697578e+01 -1.3684669112103560e+02 0 0 0
2780 112 4 0.0000000000000000e+00 -4.2984738420734210e+01 -5.8338589280879532e+01 -1.3390157765243842e+02 0 0 0
4946 198 4 0.0000000000000000e+00 -1.3461551650966978e+01 -6.3497745821482894e+01 -1.2879244290062090e+02 0 0 0
4876 196 3 0.0000000000000000e+00 6.0655439927988626e+00 -5.6516093691421780e+01 -1.2751663957888600e+02 0 0 0
2007 81 1 0.0000000000000000e+00 -9.0975238598895814e+01 -4.2202834024070206e+01 -1.3711129576646462e+02 0 0 0
2006 81 2 0.0000000000000000e+00 -8.3387583620060013e+01 -4.8727615550886028e+01 -1.3893093835762997e+02 0 0 0
1675 67 1 0.0000000000000000e+00 -7.4300792017347334e+01 -4.7748198228545270e+01 -1.2613182356004805e+02 0 0 0
4457 179 3 0.0000000000000000e+00 -6.6631286653760739e+01 -5.1596330116588938e+01 -1.3300388223038232e+02 0 0 0
4456 179 4 0.0000000000000000e+00 -6.7519474697172654e+01 -4.2085189086777063e+01 -1.3433582930787392e+02 0 0 0
2159 87 2 0.0000000000000000e+00 -5.9086631145277849e+01 -4.4766494262966759e+01 -1.3077820572566864e+02 0 0 0
2158 87 2 0.0000000000000000e+00 -4.9395532010007095e+01 -4.4475340601355775e+01 -1.3145065758389194e+02 0 0 0
2781 112 4 0.0000000000000000e+00 -3.4380852896108323e+01 -5.3780077203087536e+01 -1.3669357347799917e+02 0 0 0
3652 147 4 0.0000000000000000e+00 -3.9908641612566718e+01 -4.5940832281050668e+01 -1.2954320325653262e+02 0 0 0
3653 147 4 0.0000000000000000e+00 -3.2536053681605182e+01 -4.2505073132649400e+01 -1.3503288249005223e+02 0 0 0
2782 112 3 0.0000000000000000e+00 -2.4485818817082851e+01 -5.1004919467689923e+01 -1.3640545167260098e+02 0 0 0
1751 71 1 0.0000000000000000e+00 -2.0202410724253678e+01 -4.6497451070622894e+01 -1.2746278664294620e+02 0 0 0
2783 112 4 0.0000000000000000e+00 -1.4745044758560780e+01 -4.8457520464613502e+01 -1.3744293546770527e+02 0 0 0
2052 83 2 0.0000000000000000e+00 -5.9940808155573411e+00 -4.7418364211570186e+01 -1.2993094276007457e+02 0 0 0
4945 198 4 0.0000000000000000e+00 -1.3996284074967145e+01 -5.3935141741880123e+01 -1.2709922179832192e+02 0 0 0
261 11 2 0.0000000000000000e+00 5.1251966252921592e+00 -4.3662139785282299e+01 -1.3923999803459907e+02 0 0 0
260 11 2 0.0000000000000000e+00 4.2089700865641042e+00 -4.3410300346503412e+01 -1.2888391978576362e+02 0 0 0
2008 81 2 0.0000000000000000e+00 -9.6580530571406825e+01 -3.3656420679326132e+01 -1.3756281454438249e+02 0 0 0
3057 123 3 0.0000000000000000e+00 -8.6815946344958576e+01 -3.4489381094843132e+01 -1.2903417649108087e+02 0 0 0
3058 123 4 0.0000000000000000e+00 -7.6720799815502332e+01 -3.2750796704793174e+01 -1.2914871962515915e+02 0 0 0
4455 179 4 0.0000000000000000e+00 -6.8681110483747943e+01 -3.1617427187356235e+01 -1.3514205391827321e+02 0 0 0
4174 167 4 0.0000000000000000e+00 -4.8984736111046324e+01 -3.2340447304767558e+01 -1.2723029056696028e+02 0 0 0
4175 167 3 0.0000000000000000e+00 -4.5380214852733793e+01 -3.6088306375557991e+01 -1.3596709744050472e+02 0 0 0
1570 63 2 0.0000000000000000e+00 -3.5856850718485731e+01 -3.2774474605544391e+01 -1.3188577230860616e+02 0 0 0
3655 147 4 0.0000000000000000e+00 -1.7594695245340553e+01 -3.6749969376317829e+01 -1.3949086405808231e+02 0 0 0
3654 147 4 0.0000000000000000e+00 -2.4434159923817322e+01 -3.7374670413687419e+01 -1.3219846931262146e+02 0 0 0
1752 71 2 0.0000000000000000e+00 -1.4893821561392638e+01 -3.8437121087175150e+01 -1.2807312848556339e+02 0 0 0
2053 83 2 0.0000000000000000e+00 -7.6916253559215164e+00 -3.9181916622459930e+01 -1.3433151178087334e+02 0 0 0
4883 196 4 0.0000000000000000e+00 5.3892726119022845e+00 -3.2477841357306055e+01 -1.3063660683013049e+02 0 0 0
4884 196 4 0.0000000000000000e+00 -2.0633954213315571e+00 -2.7168202392381389e+01 -1.2663562659744967e+02 0 0 0
2009 81 2 0.0000000000000000e+00 -1.0261416455108501e+02 -2.5811909306305420e+01 -1.3939179274200612e+02 0 0 0
576 24 1 0.0000000000000000e+00 -9.2879202723322564e+01 -1.4397327709384394e+01 -1.3431556299169159e+02 0 0 0
4453 179 4 0.0000000000000000e+00 -7.3934352837803544e+01 -1.2775580771778007e+01 -1.2987722498288821e+02 0 0 0
4454 179 4 0.0000000000000000e+00 -7.1043483139150396e+01 -2.1769170620747161e+01 -1.3275059129466976e+02 0 0 0
3165 127 4 0.0000000000000000e+00 -4.4808177831927033e+01 -2.4118046402525639e+01 -1.3419483118620610e+02 0 0 0
3166 127 4 0.0000000000000000e+00 -3.5651990580692448e+01 -1.9038835559306989e+01 -1.3370100557770229e+02 0 0 0
3067 123 4 0.0000000000000000e+00 -2.0364081017275939e+01 -2.6427971672196488e+01 -1.3439783089805746e+02 0 0 0
2055 83 2 0.0000000000000000e+00 -6.6336451498723168e+00 -2.2570800594604734e+01 -1.3813286155995053e+02 0 0 0
2056 83 2 0.0000000000000000e+00 -1.1624438336800205e+01 -1.5302522752790047e+01 -1.3434797355726272e+02 0 0 0
1144 46 1 0.0000000000000000e+00 7.7957234148271652e+00 -2.5547412778186985e+01 -1.3862854614051327e+02 0 0 0
4432 178 3 0.0000000000000000e+00 9.0858753422442220e+00 -1.7337644930321598e+01 -1.3263059227261061e+02 0 0 0
269 11 1 0.0000000000000000e+00 -1.0301346877723496e+01 -9.7008816003695955e+01 -1.2448554214082218e+02 0 0 0
4950 198 3 0.0000000000000000e+00 2.7192721560199951e-01 -9.8942026788050086e+01 -1.2116183027217076e+02 0 0 0
2153 87 2 0.0000000000000000e+00 -3.0922840546837868e+01 -8.4179240242742338e+01 -1.1507628874079059e+02 0 0 0
270 11 2 0.0000000000000000e+00 -8.2788402223895368e+00 -9.5932736254935861e+01 -1.1467260781750988e+02 0 0 0
4949 198 4 0.0000000000000000e+00 -1.7708538658419697e+00 -8.9399142209929565e+01 -1.2418978004349160e+02 0 0 0
2166 87 2 0.0000000000000000e+00 -8.5457768513836541e+01 -6.9196089292846636e+01 -1.2047810489868837e+02 0 0 0
586 24 2 0.0000000000000000e+00 -7.6876628340469381e+01 -7.4910825908425096e+01 -1.1546674693499649e+02 0 0 0
584 24 2 0.0000000000000000e+00 -6.9215716874855588e+01 -7.1116331384494799e+01 -1.2353060165251857e+02 0 0 0
585 24 2 0.0000000000000000e+00 -6.7348938725112802e+01 -7.7808241410148739e+01 -1.1642419242091529e+02 0 0 0
2154 87 2 0.0000000000000000e+00 -3.0619037775953611e+01 -7.5396488247601269e+01 -1.1998989873225233e+02 0 0 0
4462 179 4 0.0000000000000000e+00 -4.1754204612321857e+01 -7.6079606542428309e+01 -1.1227707251327730e+02 0 0 0
1835 74 2 0.0000000000000000e+00 -9.6053499939723430e+00 -8.1298226460613364e+01 -1.1379748185872464e+02 0 0 0
1836 74 2 0.0000000000000000e+00 -6.2735262545677606e-01 -8.0824678764869759e+01 -1.1857968040676998e+02 0 0 0
1837 74 2 0.0000000000000000e+00 7.0249694510918257e+00 -7.3658360715581551e+01 -1.1867006493339500e+02 0 0 0
582 24 1 0.0000000000000000e+00 -8.0294217671228893e+01 -5.5070678589340623e+01 -1.2232408474912606e+02 0 0 0
2167 87 2 0.0000000000000000e+00 -8.4663999653063073e+01 -6.0598716497667041e+01 -1.1519719173531253e+02 0 0 0
583 24 2 0.0000000000000000e+00 -7.6634564326494740e+01 -6.4474159061422029e+01 -1.2077562360971226e+02 0 0 0
4459 179 4 0.0000000000000000e+00 -6.0539688145543089e+01 -6.6686550157799459e+01 -1.2326082138423712e+02 0 0 0
4848 194 4 0.0000000000000000e+00 -5.8177138833781520e+01 -5.5634975557591822e+01 -1.1984933405284839e+02 0 0 0
4847 194 4 0.0000000000000000e+00 -6.5965941314363221e+01 -6.1327241203316319e+01 -1.1646457901761075e+02 0 0 0
4460 179 4 0.0000000000000000e+00 -5.0918479941834832e+01 -6.3626394422079485e+01 -1.2206311968115776e+02 0 0 0
4395 176 4 0.0000000000000000e+00 -4.7786755471890324e+01 -5.6709395892112020e+01 -1.1314307486898647e+02 0 0 0
4461 179 4 0.0000000000000000e+00 -4.3713655503671035e+01 -6.8219464110663097e+01 -1.1708596419522151e+02 0 0 0
2155 87 2 0.0000000000000000e+00 -3.3778035337396474e+01 -6.5772529582532897e+01 -1.2149952005402966e+02 0 0 0
2156 87 2 0.0000000000000000e+00 -4.1058706704430044e+01 -5.8770907975138869e+01 -1.2233169236975277e+02 0 0 0
4398 176 4 0.0000000000000000e+00 -2.7298861087485406e+01 -5.6995930858328855e+01 -1.1782796045272430e+02 0 0 0
4399 176 4 0.0000000000000000e+00 -1.7534329779875069e+01 -5.6169617520070389e+01 -1.1687735889683708e+02 0 0 0
1839 74 2 0.0000000000000000e+00 -5.5599763854525186e+00 -6.5765963363042303e+01 -1.1694931774843761e+02 0 0 0
1840 74 2 0.0000000000000000e+00 -1.5334949528702362e+01 -6.7477335278698305e+01 -1.1607355172969613e+02 0 0 0
4400 176 3 0.0000000000000000e+00 -8.0630479418244505e+00 -5.6245234603781874e+01 -1.1399509347721229e+02 0 0 0
1838 74 1 0.0000000000000000e+00 3.7228471346211292e+00 -6.4573859040230133e+01 -1.2019062839335442e+02 0 0 0
581 24 2 0.0000000000000000e+00 -8.6853543796730833e+01 -4.7222921297977550e+01 -1.2235048906341082e+02 0 0 0
1989 80 2 0.0000000000000000e+00 -7.6517084515168591e+01 -4.4562737219133105e+01 -1.1248425587591974e+02 0 0 0
1674 67 2 0.0000000000000000e+00 -7.0418973061857713e+01 -5.0545657256398584e+01 -1.1773603808142617e+02 0 0 0
4850 194 3 0.0000000000000000e+00 -6.1516986317241262e+01 -4.1793303165043262e+01 -1.1288990899726076e+02 0 0 0
2157 87 1 0.0000000000000000e+00 -4.9107938075272486e+01 -5.3203201534376504e+01 -1.2592433121760348e+02 0 0 0
4849 194 4 0.0000000000000000e+00 -5.7083082048490134e+01 -4.5842587161131249e+01 -1.2079126411276503e+02 0 0 0
3651 147 3 0.0000000000000000e+00 -4.5662149475228624e+01 -4.3154641412909768e+01 -1.2138785078424215e+02 0 0 0
4397 176 4 0.0000000000000000e+00 -3.2804720174103736e+01 -4.9286733218980714e+01 -1.2267206862164316e+02 0 0 0
4396 176 4 0.0000000000000000e+00 -4.0269073000384196e+01 -5.0572661356454482e+01 -1.1613022191299791e+02 0 0 0
2229 90 2 0.0000000000000000e+00 -3.0548707832679455e+01 -4.2170370645129708e+01 -1.1275405745012057e+02 0 0 0
4944 198 3 0.0000000000000000e+00 -1.0741735138283165e+01 -4.6456424919509026e+01 -1.2079859317853271e+02 0 0 0
2051 83 1 0.0000000000000000e+00 -5.4358972497337044e-01 -5.0576905612141346e+01 -1.2171510977817171e+02 0 0 0
750 30 1 0.0000000000000000e+00 -1.3178611853633390e+02 -2.7307853826437938e+01 -1.1264328543851298e+02 0 0 0
3056 123 4 0.0000000000000000e+00 -8.7667320015800058e+01 -2.9080145778416291e+01 -1.2066213125671348e+02 0 0 0
580 24 2 0.0000000000000000e+00 -8.3354284090313712e+01 -3.8270277815981601e+01 -1.1823917864176948e+02 0 0 0
579 24 2 0.0000000000000000e+00 -7.9838384087897637e+01 -2.9234466159277172e+01 -1.1534360819850538e+02 0 0 0
3059 123 4 0.0000000000000000e+00 -6.8979224547840971e+01 -3.1179564347536452e+01 -1.2331275878802603e+02 0 0 0
3060 123 4 0.0000000000000000e+00 -5.9533140263835506e+01 -2.9506600645449353e+01 -1.2030958075917255e+02 0 0 0
4173 167 4 0.0000000000000000e+00 -5.2854413719964214e+01 -3.5885183052767061e+01 -1.1848796996004022e+02 0 0 0
1571 63 2 0.0000000000000000e+00 -3.6232788992034450e+01 -3.7064601810831562e+01 -1.2260217223173221e+02 0 0 0
1572 63 2 0.0000000000000000e+00 -4.1907218030832730e+01 -3.7084999147648439e+01 -1.1412727826310706e+02 0 0 0
2230 90 2 0.0000000000000000e+00 -3.2967890045609948e+01 -3.2614565535282615e+01 -1.1502597000618340e+02 0 0 0
3065 123 4 0.0000000000000000e+00 -1.9296903945984852e+01 -2.8642234950508811e+01 -1.1512057841452364e+02 0 0 0
1753 71 2 0.0000000000000000e+00 -9.4753016913612846e+00 -3.1758046494001519e+01 -1.2221649660777273e+02 0 0 0
4943 198 4 0.0000000000000000e+00 -1.5087841085641031e+01 -4.0163953562426542e+01 -1.1481911262792269e+02 0 0 0
259 11 2 0.0000000000000000e+00 9.7828490491168318e-01 -3.9031655635483759e+01 -1.2033200061926102e+02 0 0 0
1754 71 2 0.0000000000000000e+00 -8.8511042317261324e-01 -2.9038900798607482e+01 -1.1668939865940601e+02 0 0 0
748 30 2 0.0000000000000000e+00 -1.1802537561630461e+02 -2.0720524163495902e+01 -1.1555996322924950e+02 0 0 0
3054 123 4 0.0000000000000000e+00 -1.0271252559721596e+02 -1.9618588133088821e+01 -1.2484197108524849e+02 0 0 0
577 24 2 0.0000000000000000e+00 -9.0742046836425885e+01 -1.6546074216951329e+01 -1.2387129995029814e+02 0 0 0
3055 123 4 0.0000000000000000e+00 -9.6866453731326700e+01 -2.4897233268739839e+01 -1.1872068697883773e+02 0 0 0
578 24 2 0.0000000000000000e+00 -8.1980121173963539e+01 -2.0339495687209009e+01 -1.1955836001131604e+02 0 0 0
3161 127 4 0.0000000000000000e+00 -6.7854089955671697e+01 -2.1987467898357867e+01 -1.1651467220962041e+02 0 0 0
3162 127 4 0.0000000000000000e+00 -6.3421868309184056e+01 -2.1449776777479528e+01 -1.2583237480895130e+02 0 0 0
3164 127 4 0.0000000000000000e+00 -4.5082342239085833e+01 -1.9465704581194082e+01 -1.2504404470180137e+02 0 0 0
3163 127 3 0.0000000000000000e+00 -5.4515872918375223e+01 -1.6065005602218505e+01 -1.2358379701521420e+02 0 0 0
3061 123 4 0.0000000000000000e+00 -5.0684533953903291e+01 -2.5311166081455394e+01 -1.1704235747907487e+02 0 0 0
2231 90 2 0.0000000000000000e+00 -3.5137697699015867e+01 -2.4642257848919076e+01 -1.2024938060803976e+02 0 0 0
3062 123 4 0.0000000000000000e+00 -4.2472309981991621e+01 -2.0032514254071902e+01 -1.1535120109792020e+02 0 0 0
2232 90 1 0.0000000000000000e+00 -3.0122947096284051e+01 -1.6173252957598358e+01 -1.2073618044622036e+02 0 0 0
3066 123 4 0.0000000000000000e+00 -2.2028526035483385e+01 -2.6277127427177046e+01 -1.2443049558158044e+02 0 0 0
4885 196 4 0.0000000000000000e+00 -9.6150714115649940e+00 -2.0266405869516198e+01 -1.2577225057671755e+02 0 0 0
3184 128 4 0.0000000000000000e+00 -7.9322243442269746e+00 -1.4311258893831942e+01 -1.1672283578760452e+02 0 0 0
4886 196 4 0.0000000000000000e+00 -1.5909559345226187e+01 -1.2839821387805843e+01 -1.2527937377452665e+02 0 0 0
3183 128 4 0.0000000000000000e+00 5.8350960465888384e-02 -1.7912499405192690e+01 -1.2144395375366365e+02 0 0 0
3182 128 3 0.0000000000000000e+00 7.0043638369604064e+00 -2.4368054886091027e+01 -1.2426480999501055e+02 0 0 0
572 23 2 0.0000000000000000e+00 -1.6938059977127089e+01 -1.1397068638935446e+02 -1.0391409293697924e+02 0 0 0
4471 179 4 0.0000000000000000e+00 -2.7435928420479359e+00 -1.1380354155811754e+02 -1.0699094836220732e+02 0 0 0
4472 179 4 0.0000000000000000e+00 -1.3651717912345001e+00 -1.2161160986071232e+02 -1.0048130403437901e+02 0 0 0
1849 74 2 0.0000000000000000e+00 -4.1540729970839443e+01 -1.0071893866863705e+02 -1.0577978379230100e+02 0 0 0
571 23 2 0.0000000000000000e+00 -1.3594134188755250e+01 -1.0437724474523199e+02 -1.0492524362186830e+02 0 0 0
570 23 2 0.0000000000000000e+00 -1.4819134296068166e+01 -9.7445985197398784e+01 -9.8660013727119491e+01 0 0 0
4470 179 4 0.0000000000000000e+00 1.1090593843393031e+00 -1.0468991179787143e+02 -1.0938854829663575e+02 0 0 0
4469 179 3 0.0000000000000000e+00 -1.4448547486462382e+00 -9.8744693779464797e+01 -1.0169246726710207e+02 0 0 0
4391 176 4 0.0000000000000000e+00 -6.7916704199826441e+01 -8.5817382810531996e+01 -9.9519023801023522e+01 0 0 0
1850 74 1 0.0000000000000000e+00 -4.6558044085925538e+01 -9.3070677008158867e+01 -1.1150112123658488e+02 0 0 0
4463 179 3 0.0000000000000000e+00 -4.0051125880032117e+01 -8.4904652430396254e+01 -1.0675754536763152e+02 0 0 0
4464 179 4 0.0000000000000000e+00 -3.6071173661672894e+01 -9.3604222334669274e+01 -1.0258325315474325e+02 0 0 0
2152 87 2 0.0000000000000000e+00 -2.5860189308978288e+01 -9.0916570586184505e+01 -1.0966381285636368e+02 0 0 0
3238 130 3 0.0000000000000000e+00 -1.7770047231254967e+01 -8.5584697953325545e+01 -1.0165231288973733e+02 0 0 0
2151 87 1 0.0000000000000000e+00 -1.6207037386431821e+01 -9.4166723257929419e+01 -1.0876506765181071e+02 0 0 0
271 11 2 0.0000000000000000e+00 -7.5870488151607853e+00 -9.0256142516859612e+01 -1.0656779917160920e+02 0 0 0
588 24 1 0.0000000000000000e+00 -9.0010001295981553e+01 -7.2309654097357352e+01 -1.0024388759378024e+02 0 0 0
587 24 2 0.0000000000000000e+00 -8.4904909323765608e+01 -7.4445913120016513e+01 -1.0897246850873142e+02 0 0 0
4393 176 4 0.0000000000000000e+00 -6.1746048378255033e+01 -6.9585418043106770e+01 -1.0951698990818045e+02 0 0 0
4392 176 4 0.0000000000000000e+00 -6.4930057040988814e+01 -7.8637587919769700e+01 -1.0567572716572244e+02 0 0 0
1846 74 2 0.0000000000000000e+00 -5.1750518672637575e+01 -8.2426638116658395e+01 -1.0157099889597738e+02 0 0 0
1845 74 2 0.0000000000000000e+00 -5.3034469823566376e+01 -7.2612640443861125e+01 -1.0404611927109043e+02 0 0 0
1832 74 1 0.0000000000000000e+00 -3.5037893753293950e+01 -6.9860101826401078e+01 -1.0575874037806582e+02 0 0 0
1831 74 2 0.0000000000000000e+00 -4.2734690174732350e+01 -7.2511812690667583e+01 -9.9624366857786939e+01 0 0 0
1833 74 2 0.0000000000000000e+00 -2.7562158356609451e+01 -7.5763303595804487e+01 -1.0826741038824800e+02 0 0 0
1834 74 2 0.0000000000000000e+00 -1.9699279767171991e+01 -8.1872053732569029e+01 -1.1160639337744962e+02 0 0 0
3279 132 4 0.0000000000000000e+00 -1.8678647599503638e+01 -7.5604166933043231e+01 -9.9300518139475628e+01 0 0 0
2719 109 3 0.0000000000000000e+00 -2.5997697981556378e+01 -6.9623502891048375e+01 -9.9336386114568796e+01 0 0 0
272 11 2 0.0000000000000000e+00 -3.8528614838756279e+00 -8.1395429658970386e+01 -1.0414049718037684e+02 0 0 0
3280 132 4 0.0000000000000000e+00 -1.1768907281624722e+01 -7.0297913249565127e+01 -1.0401550989777348e+02 0 0 0
566 23 2 0.0000000000000000e+00 1.0382420808642019e+01 -7.6901132228768972e+01 -1.0427076788353317e+02 0 0 0
273 11 2 0.0000000000000000e+00 -1.1309974083176799e+00 -7.3349547188386339e+01 -1.0929352459589519e+02 0 0 0
4844 194 3 0.0000000000000000e+00 -8.6002923291494369e+01 -6.1641536194925372e+01 -9.8869733013604460e+01 0 0 0
4845 194 4 0.0000000000000000e+00 -7.9300398612163647e+01 -6.7922366575269152e+01 -1.0302295443798958e+02 0 0 0
4846 194 4 0.0000000000000000e+00 -7.2492624495924375e+01 -6.5095607961092199e+01 -1.0959992042880786e+02 0 0 0
3151 127 3 0.0000000000000000e+00 -7.5652461489203077e+01 -5.7631627399714098e+01 -1.0178216705993448e+02 0 0 0
4170 167 4 0.0000000000000000e+00 -5.9734894030522860e+01 -5.7143733632252641e+01 -1.0243202279926540e+02 0 0 0
1844 74 1 0.0000000000000000e+00 -4.8522583483163956e+01 -6.4061458370037840e+01 -1.0331043098914454e+02 0 0 0
4394 176 3 0.0000000000000000e+00 -5.7001077479784684e+01 -6.1056762544450230e+01 -1.1061273782422882e+02 0 0 0
1843 74 2 0.0000000000000000e+00 -3.9952077344986861e+01 -6.0012603060748155e+01 -1.0611295485662552e+02 0 0 0
1842 74 2 0.0000000000000000e+00 -3.0642805268215636e+01 -5.7341702631665683e+01 -1.0886554693597630e+02 0 0 0
1841 74 2 0.0000000000000000e+00 -2.3530977919784625e+01 -6.4687111801486353e+01 -1.1032028704017308e+02 0 0 0
3281 132 4 0.0000000000000000e+00 -9.3875269953165930e+00 -6.0518749633738310e+01 -1.0233462125797330e+02 0 0 0
274 11 2 0.0000000000000000e+00 2.1170924204088717e+00 -6.3577235715798466e+01 -1.0937218871605631e+02 0 0 0
1990 80 2 0.0000000000000000e+00 -8.6788278954713405e+01 -4.4828721764719994e+01 -1.1097135559586386e+02 0 0 0
2168 87 2 0.0000000000000000e+00 -7.8889592523489355e+01 -5.4036527873138468e+01 -1.1043091510144939e+02 0 0 0
2169 87 1 0.0000000000000000e+00 -7.9971665714490882e+01 -4.7200465600076527e+01 -1.0291028023735917e+02 0 0 0
1673 67 2 0.0000000000000000e+00 -6.8446264690401918e+01 -5.3329853210489119e+01 -1.0834941279893027e+02 0 0 0
1672 67 2 0.0000000000000000e+00 -6.6449057032916585e+01 -4.8831170713793895e+01 -9.9685407368943345e+01 0 0 0
4171 167 4 0.0000000000000000e+00 -5.6027104290760946e+01 -4.7727188710457938e+01 -1.0345651879014541e+02 0 0 0
2228 90 2 0.0000000000000000e+00 -3.7512241102626781e+01 -4.2959519298764306e+01 -1.0552427689876599e+02 0 0 0
86 4 2 0.0000000000000000e+00 -2.8412108109552836e+01 -4.8298864285564669e+01 -9.9409542430913874e+01 0 0 0
87 4 2 0.0000000000000000e+00 -1.9630781380237483e+01 -4.3621860291945680e+01 -9.9014059812979397e+01 0 0 0
1151 47 1 0.0000000000000000e+00 -1.4780070390497693e+01 -5.0858434010545260e+01 -1.0761105908178784e+02 0 0 0
3282 132 3 0.0000000000000000e+00 -2.8939694090706927e+00 -5.2479245235093387e+01 -1.0243332801619052e+02 0 0 0
1152 47 2 0.0000000000000000e+00 -9.0006685170904568e+00 -4.3348237555740695e+01 -1.0514809322593851e+02 0 0 0
258 11 2 0.0000000000000000e+00 4.8978880667916487e+00 -4.2994378338165120e+01 -1.1170090747367929e+02 0 0 0
275 11 1 0.0000000000000000e+00 3.4827303978395800e+00 -5.3928915084659899e+01 -1.1126468884493465e+02 0 0 0
257 11 1 0.0000000000000000e+00 7.0137292615970148e+00 -4.6232977207522566e+01 -1.0196616600888392e+02 0 0 0
1547 62 2 0.0000000000000000e+00 -1.0962382998080408e+02 -3.1096551858018177e+01 -1.0656052640295641e+02 0 0 0
1546 62 2 0.0000000000000000e+00 -1.0228626339235845e+02 -3.3519413662920918e+01 -1.0028899910917153e+02 0 0 0
1992 80 2 0.0000000000000000e+00 -9.5991570542406578e+01 -2.9233151880185531e+01 -1.0740879153144036e+02 0 0 0
1991 80 2 0.0000000000000000e+00 -9.3199956126397822e+01 -3.8934564261834645e+01 -1.0656108608015667e+02 0 0 0
2170 87 2 0.0000000000000000e+00 -8.1187829158616395e+01 -3.7481543715168030e+01 -1.0048755336438361e+02 0 0 0
3159 127 4 0.0000000000000000e+00 -7.5135204543773241e+01 -2.7736546389847778e+01 -9.9894294690637750e+01 0 0 0
1988 80 1 0.0000000000000000e+00 -7.0266657786437605e+01 -3.8312688688563767e+01 -1.0798623072909737e+02 0 0 0
1987 80 2 0.0000000000000000e+00 -6.6394016131560022e+01 -3.6621662340180414e+01 -9.8722701884985767e+01 0 0 0
4172 167 4 0.0000000000000000e+00 -5.2362710270184678e+01 -4.0260070480840724e+01 -1.0903540517879431e+02 0 0 0
1573 63 2 0.0000000000000000e+00 -4.5924104071041342e+01 -3.0123046003910403e+01 -1.0784035135714488e+02 0 0 0
2227 90 2 0.0000000000000000e+00 -4.5916383232374876e+01 -3.8894641147792541e+01 -1.0080162200691153e+02 0 0 0
4941 198 4 0.0000000000000000e+00 -2.6494390563441524e+01 -3.5607407727021815e+01 -1.0077015124620371e+02 0 0 0
4942 198 4 0.0000000000000000e+00 -2.2603743252741339e+01 -3.5383337146232101e+01 -1.0983745263336166e+02 0 0 0
4783 192 4 0.0000000000000000e+00 -7.0395166218968184e+00 -3.3804175222909947e+01 -1.0639269350854924e+02 0 0 0
4782 192 3 0.0000000000000000e+00 -1.4229743700377034e+01 -2.7698827157639379e+01 -1.0556857588161296e+02 0 0 0
4784 192 4 0.0000000000000000e+00 2.4372819071280349e+00 -3.4043895313498837e+01 -1.0404298174624930e+02 0 0 0
3750 150 3 0.0000000000000000e+00 -1.3183358533924627e+02 -1.7447417769943648e+01 -1.0774193717691860e+02 0 0 0
749 30 2 0.0000000000000000e+00 -1.2234634501888756e+02 -2.6357653613703569e+01 -1.0804304664665851e+02 0 0 0
3749 150 4 0.0000000000000000e+00 -1.2309524208330058e+02 -1.6025272579886050e+01 -1.0283514563331775e+02 0 0 0
1548 62 2 0.0000000000000000e+00 -1.1452863319498485e+02 -2.4641567026517617e+01 -1.0036346906092749e+02 0 0 0
3747 150 4 0.0000000000000000e+00 -1.0756771302568382e+02 -1.3484735965139297e+01 -9.9533457503828970e+01 0 0 0
1993 80 2 0.0000000000000000e+00 -9.7866493472312470e+01 -1.9537552896485465e+01 -1.1105544380210588e+02 0 0 0