LAMMPS data file via write_data, version 5 Jun 2019, timestep = 360000000

5000 atoms
4 atom types
5257 bonds
3 bond types
4600 angles
2 angle types

-2.5000000000000000e+02 2.5000000000000000e+02 xlo xhi
-2.5000000000000000e+02 2.5000000000000000e+02 ylo yhi
-2.5000000000000000e+02 2.5000000000000000e+02 zlo zhi

Masses

1 1000
2 1000
3 1000
4 1000

Pair Coeffs # lj/cut

1 0.3 10
2 0.3 10
3 0.3 10
4 0.3 10

Bond Coeffs # harmonic

1 3 10
2 3 10
3 1.8 11.22

Angle Coeffs # cosine

1 2
2 2

Atoms # full

2058 83 2 0.0000000000000000e+00 -6.9362193986358577e+01 -2.3270579063648476e+01 -1.6855911274678130e+02 0 0 0
2057 83 1 0.0000000000000000e+00 -6.1973284710265858e+01 -1.7125110570080160e+01 -1.7182190678354814e+02 0 0 0
2056 83 2 0.0000000000000000e+00 -5.2380380143907104e+01 -1.7764769795161545e+01 -1.7567142418507609e+02 0 0 0
2055 83 2 0.0000000000000000e+00 -4.2754777813901882e+01 -1.9450046575643146e+01 -1.7640911340962148e+02 0 0 0
3904 157 4 0.0000000000000000e+00 -4.5199073412012737e+01 -2.5922219933004618e+00 -1.7504012332379006e+02 0 0 0
3905 157 4 0.0000000000000000e+00 -5.2597087072505659e+01 3.9128944938541110e+00 -1.7788086439119411e+02 0 0 0
3906 157 4 0.0000000000000000e+00 -5.1957973053651294e+01 1.2418945137669230e+01 -1.7197802777074821e+02 0 0 0
3907 157 3 0.0000000000000000e+00 -5.1857040888760203e+01 2.1964868648262932e+01 -1.7531327118032266e+02 0 0 0
2238 90 1 0.0000000000000000e+00 -4.1791792253430224e+01 1.9911901202534988e+01 -1.6949809229720159e+02 0 0 0
3909 157 4 0.0000000000000000e+00 -4.4554728705345028e+01 3.7296465072544272e+01 -1.6951934770286471e+02 0 0 0
3908 157 4 0.0000000000000000e+00 -4.3847799010309210e+01 2.9002513289981547e+01 -1.7540248614888080e+02 0 0 0
1122 45 2 0.0000000000000000e+00 -4.7170222223844988e+01 -4.6182996532168865e+01 -1.5733049728012057e+02 0 0 0
2009 81 2 0.0000000000000000e+00 -8.2940703705247103e+01 -4.2448060357940790e+01 -1.5324401803939597e+02 0 0 0
2010 81 2 0.0000000000000000e+00 -7.3426257425103060e+01 -4.0093372558886209e+01 -1.5365654373949116e+02 0 0 0
2011 81 2 0.0000000000000000e+00 -6.7123205899113799e+01 -3.2483160322932029e+01 -1.5465738576861520e+02 0 0 0
1123 45 2 0.0000000000000000e+00 -4.6893756247204159e+01 -3.6250982197024825e+01 -1.5808750623379905e+02 0 0 0
2060 83 2 0.0000000000000000e+00 -7.8392801060831431e+01 -1.5584948896767100e+01 -1.5770038789505102e+02 0 0 0
2059 83 2 0.0000000000000000e+00 -6.8972895176288688e+01 -1.7912427943527064e+01 -1.6006650416773044e+02 0 0 0
3066 123 4 0.0000000000000000e+00 -4.9616539386999634e+01 -1.9150292050931160e+01 -1.6519826357856982e+02 0 0 0
2232 90 1 0.0000000000000000e+00 -5.2067035509204480e+01 -1.6704084338287775e+01 -1.5584206659691350e+02 0 0 0
2231 90 2 0.0000000000000000e+00 -5.3130408035269092e+01 -2.6742469737275975e+01 -1.5683809620397051e+02 0 0 0
3067 123 4 0.0000000000000000e+00 -4.1861018309476385e+01 -2.5796070104706551e+01 -1.6587148039938035e+02 0 0 0
2062 83 2 0.0000000000000000e+00 -8.8889510986295122e+01 -2.2556845638223204e+00 -1.5390195422646025e+02 0 0 0
2233 90 2 0.0000000000000000e+00 -5.9659622538422127e+01 -1.0632189924821368e+01 -1.5667728999895192e+02 0 0 0
2234 90 2 0.0000000000000000e+00 -6.4930683143827736e+01 -1.8103087434257004e+00 -1.5634536101004304e+02 0 0 0
3065 123 4 0.0000000000000000e+00 -5.2222608502597502e+01 -9.1468899994057846e+00 -1.6452031801698004e+02 0 0 0
3064 123 4 0.0000000000000000e+00 -4.9267459678234118e+01 -5.8211880405986323e+00 -1.5508700398391946e+02 0 0 0
2235 90 2 0.0000000000000000e+00 -6.4499860617425625e+01 8.1936491858079670e+00 -1.5491908358146136e+02 0 0 0
2236 90 2 0.0000000000000000e+00 -5.6992283191142612e+01 1.2392096636050734e+01 -1.6078442974159663e+02 0 0 0
2237 90 2 0.0000000000000000e+00 -4.6633417164518512e+01 1.4139068808199722e+01 -1.6216099060741573e+02 0 0 0
2954 119 4 0.0000000000000000e+00 -7.5174344798193985e+01 3.5278610177798505e+01 -1.5982517771643674e+02 0 0 0
2953 119 4 0.0000000000000000e+00 -6.7479165968246960e+01 2.9550344663257007e+01 -1.5666428778046154e+02 0 0 0
2004 81 2 0.0000000000000000e+00 -5.8183360367810742e+01 -5.9149155153138693e+01 -1.4180465910924093e+02 0 0 0
2006 81 2 0.0000000000000000e+00 -7.2601279597430960e+01 -4.7956321947160234e+01 -1.4593828968270626e+02 0 0 0
2005 81 2 0.0000000000000000e+00 -6.7502568444419438e+01 -5.5410081480790048e+01 -1.4263103476174422e+02 0 0 0
1121 45 2 0.0000000000000000e+00 -4.1878801001610022e+01 -5.0040062740015735e+01 -1.4908350041105331e+02 0 0 0
2008 81 2 0.0000000000000000e+00 -8.5431753523747233e+01 -3.3556276993067421e+01 -1.4857109388133409e+02 0 0 0
2007 81 1 0.0000000000000000e+00 -7.7426422844806424e+01 -3.8850788335399535e+01 -1.4508572812528718e+02 0 0 0
584 24 2 0.0000000000000000e+00 -6.3037466374959664e+01 -4.0110216863139073e+01 -1.4089695230515534e+02 0 0 0
2230 90 2 0.0000000000000000e+00 -5.7912952114385540e+01 -3.2080365788088905e+01 -1.4951251503049861e+02 0 0 0
2229 90 2 0.0000000000000000e+00 -5.2406200868156844e+01 -3.5642259476286739e+01 -1.4184819318266398e+02 0 0 0
4452 179 4 0.0000000000000000e+00 -7.7806800813252863e+01 -1.8208869672682333e+01 -1.4126620145918477e+02 0 0 0
2012 81 2 0.0000000000000000e+00 -6.6818855371095850e+01 -2.3125716587544897e+01 -1.5067317914481526e+02 0 0 0
2052 83 2 0.0000000000000000e+00 -4.1821370895000626e+01 -1.7470076716881280e+01 -1.5123027914367188e+02 0 0 0
2051 83 1 0.0000000000000000e+00 -4.9723719855510630e+01 -2.1632607162361396e+01 -1.4710301315992868e+02 0 0 0
3062 123 4 0.0000000000000000e+00 -5.4193178047347800e+01 -1.7512956560468439e+01 -1.3970484372068884e+02 0 0 0
1386 56 2 0.0000000000000000e+00 -1.0534519393006481e+02 -5.0451194873851826e+00 -1.3965004236499246e+02 0 0 0
2061 83 2 0.0000000000000000e+00 -8.6602970211210916e+01 -1.2173698974519759e+01 -1.5264091925011607e+02 0 0 0
4451 179 3 0.0000000000000000e+00 -7.7014453243517167e+01 -1.0669356428236966e+01 -1.4820256911668849e+02 0 0 0
2013 81 1 0.0000000000000000e+00 -6.5228753772487678e+01 -1.2847063287951471e+01 -1.4847470974393903e+02 0 0 0
2014 81 2 0.0000000000000000e+00 -6.2968158490249948e+01 -2.8808046995678089e+00 -1.4628258839312062e+02 0 0 0
3063 123 3 0.0000000000000000e+00 -5.2881335048029214e+01 -1.0097412001631966e+01 -1.4657011426915153e+02 0 0 0
2400 96 1 0.0000000000000000e+00 -4.3098326889113245e+01 -9.4802799723614761e+00 -1.4399878635377621e+02 0 0 0
1385 56 2 0.0000000000000000e+00 -1.0288696102840271e+02 3.7879053620614838e+00 -1.4389217297069703e+02 0 0 0
3919 157 3 0.0000000000000000e+00 -8.7368675840030534e+01 9.6857541235197342e+00 -1.4618197688887747e+02 0 0 0
3920 157 4 0.0000000000000000e+00 -8.8185562327602497e+01 1.5349299914612602e+00 -1.4059167826311938e+02 0 0 0
2063 83 1 0.0000000000000000e+00 -8.0686618102666898e+01 3.4126779082515655e+00 -1.5267947832246520e+02 0 0 0
2064 83 2 0.0000000000000000e+00 -7.3222294462492854e+01 8.6114101957757168e+00 -1.4793467647383426e+02 0 0 0
3750 150 3 0.0000000000000000e+00 -7.4443815704753277e+01 -6.8758532635062553e-01 -1.4533191163080110e+02 0 0 0
2015 81 2 0.0000000000000000e+00 -5.6861997062226386e+01 5.5462465062779938e+00 -1.4691207736072363e+02 0 0 0
2065 83 2 0.0000000000000000e+00 -6.5398177768333412e+01 7.8229808889440688e+00 -1.4144353754981123e+02 0 0 0
3175 127 3 0.0000000000000000e+00 -4.5061652864632471e+01 -1.0124270387180737e-02 -1.4277185728969255e+02 0 0 0
1384 56 2 0.0000000000000000e+00 -1.0050929756366617e+02 1.3319800716933717e+01 -1.4626147006222405e+02 0 0 0
3956 159 4 0.0000000000000000e+00 -1.0910839061039017e+02 1.3850729539902416e+01 -1.3973801597500761e+02 0 0 0
1383 56 2 0.0000000000000000e+00 -9.3762140562344200e+01 1.8770517159708572e+01 -1.4162841056007392e+02 0 0 0
3918 157 4 0.0000000000000000e+00 -8.4683694668475965e+01 1.8014177241503113e+01 -1.4982783350335774e+02 0 0 0
3917 157 4 0.0000000000000000e+00 -8.2708026036410814e+01 2.3730750416239584e+01 -1.4166805350653303e+02 0 0 0
2952 119 4 0.0000000000000000e+00 -5.9787002898039368e+01 2.3499462444026914e+01 -1.5269487455621683e+02 0 0 0
2016 81 2 0.0000000000000000e+00 -5.1814332034742336e+01 1.4139647411387585e+01 -1.4890323184758387e+02 0 0 0
2017 81 2 0.0000000000000000e+00 -4.3826072659101399e+01 1.7486356608330883e+01 -1.4334553293517220e+02 0 0 0
2956 119 4 0.0000000000000000e+00 -8.2989364833749960e+01 3.6287462189383781e+01 -1.4091475701857078e+02 0 0 0
2955 119 4 0.0000000000000000e+00 -7.9059012631879540e+01 3.6589026037430784e+01 -1.5014461176596669e+02 0 0 0
1176 48 1 0.0000000000000000e+00 -6.2963653631393065e+01 3.1388963547297500e+01 -1.4050863105103664e+02 0 0 0
1177 48 2 0.0000000000000000e+00 -5.6071245805339302e+01 3.8104663903148591e+01 -1.4491178516327827e+02 0 0 0
2951 119 3 0.0000000000000000e+00 -5.4549339142540461e+01 2.9040613111263731e+01 -1.4637322595536335e+02 0 0 0
4848 194 4 0.0000000000000000e+00 -7.9605350581504638e+01 -6.1363459339867411e+01 -1.3097913163060301e+02 0 0 0
2158 87 2 0.0000000000000000e+00 -4.7253326915280383e+01 -5.8891227860214926e+01 -1.2579733928163753e+02 0 0 0
4849 194 4 0.0000000000000000e+00 -7.5565732463054516e+01 -5.2780851095407478e+01 -1.3422778399795286e+02 0 0 0
586 24 2 0.0000000000000000e+00 -5.8415145429346687e+01 -5.5115247711215261e+01 -1.3096177658381569e+02 0 0 0
585 24 2 0.0000000000000000e+00 -5.6470894736868075e+01 -4.6552012784029699e+01 -1.3622135518949889e+02 0 0 0
2003 81 2 0.0000000000000000e+00 -4.9153976858766960e+01 -5.5265412985769622e+01 -1.3759474104744916e+02 0 0 0
4461 179 4 0.0000000000000000e+00 -4.7069030030121404e+01 -4.7223612475132441e+01 -1.3017910778013652e+02 0 0 0
1389 56 2 0.0000000000000000e+00 -1.0553550826607265e+02 -2.9755793028388549e+01 -1.2498123367838818e+02 0 0 0
4455 179 4 0.0000000000000000e+00 -8.8234993742361894e+01 -4.1938756062893347e+01 -1.2984640359002609e+02 0 0 0
4454 179 4 0.0000000000000000e+00 -8.3971391383105669e+01 -3.4758532846579222e+01 -1.3592725820278804e+02 0 0 0
4850 194 3 0.0000000000000000e+00 -7.6562002556405986e+01 -4.2899937133108807e+01 -1.3430453733207244e+02 0 0 0
582 24 1 0.0000000000000000e+00 -7.1560634812026180e+01 -4.2182608748627715e+01 -1.2525188745493143e+02 0 0 0
583 24 2 0.0000000000000000e+00 -6.7541368424537708e+01 -3.6949066487330207e+01 -1.3262536257464518e+02 0 0 0
4460 179 4 0.0000000000000000e+00 -5.0443736861832164e+01 -3.8419283647494375e+01 -1.2750100344333393e+02 0 0 0
1388 56 1 0.0000000000000000e+00 -1.0717112099280172e+02 -2.0964090687557331e+01 -1.3049193557084311e+02 0 0 0
4453 179 4 0.0000000000000000e+00 -7.9897707254095053e+01 -2.5621911887521826e+01 -1.3474210133627207e+02 0 0 0
3059 123 4 0.0000000000000000e+00 -7.3601867735346815e+01 -1.7926664295640094e+01 -1.3128438017280257e+02 0 0 0
3060 123 4 0.0000000000000000e+00 -7.0048220103736938e+01 -2.6555982876687303e+01 -1.3363203046477923e+02 0 0 0
3061 123 4 0.0000000000000000e+00 -6.1808003407181360e+01 -2.1122859542985033e+01 -1.3409417408251539e+02 0 0 0
2228 90 2 0.0000000000000000e+00 -5.2095875715165484e+01 -2.7939159121709658e+01 -1.3503317748998140e+02 0 0 0
2227 90 2 0.0000000000000000e+00 -5.2370143992657120e+01 -2.5076004569183940e+01 -1.2553738182689844e+02 0 0 0
1387 56 2 0.0000000000000000e+00 -1.0305619438219880e+02 -1.2107155068319544e+01 -1.3274197804794522e+02 0 0 0
3748 150 4 0.0000000000000000e+00 -8.4477815611202900e+01 -3.2892899162829532e+00 -1.3074274402719001e+02 0 0 0
1675 67 1 0.0000000000000000e+00 -6.8888077880455327e+01 -6.6692822642738436e+00 -1.3858687714204956e+02 0 0 0
1674 67 2 0.0000000000000000e+00 -6.5331959293962925e+01 -3.9886728301510463e+00 -1.2932010369776407e+02 0 0 0
2398 96 2 0.0000000000000000e+00 -5.1319591071855093e+01 -9.7254631176372310e+00 -1.2774228676932451e+02 0 0 0
2399 96 2 0.0000000000000000e+00 -4.4568201129775836e+01 -6.9819234659053375e+00 -1.3442813015239679e+02 0 0 0
3955 159 4 0.0000000000000000e+00 -1.0212411175604235e+02 1.0133343237545498e+01 -1.3311385771047037e+02 0 0 0
3747 150 4 0.0000000000000000e+00 -9.3490350821895660e+01 -1.2828008244538458e+00 -1.2607091396311883e+02 0 0 0
3921 157 4 0.0000000000000000e+00 -8.5047214834623460e+01 5.9933630897325045e+00 -1.3240539932182242e+02 0 0 0
3954 159 4 0.0000000000000000e+00 -9.3247547445858544e+01 1.0125586138898868e+01 -1.2885024364392160e+02 0 0 0
3749 150 4 0.0000000000000000e+00 -7.5656779464672553e+01 8.6052604112581241e-02 -1.3557247805517520e+02 0 0 0
2066 83 2 0.0000000000000000e+00 -6.0981747254259126e+01 6.9071132503349872e+00 -1.3259864539848795e+02 0 0 0
705 29 2 0.0000000000000000e+00 -4.4389402889063071e+01 1.0024897898428923e+01 -1.2753974114685928e+02 0 0 0
3958 159 4 0.0000000000000000e+00 -1.2486949254006274e+02 1.6235176324705922e+01 -1.3141729031492571e+02 0 0 0
3957 159 3 0.0000000000000000e+00 -1.1799085656996330e+02 1.8841857575699848e+01 -1.3834265100553210e+02 0 0 0
3651 147 3 0.0000000000000000e+00 -6.1123284694897990e+01 1.8996322112942249e+01 -1.3343839209235631e+02 0 0 0
3652 147 4 0.0000000000000000e+00 -5.1601024846030917e+01 2.0572090340014110e+01 -1.3107110045469020e+02 0 0 0
3653 147 4 0.0000000000000000e+00 -4.1578678433375956e+01 1.8729183769604191e+01 -1.3320096792677657e+02 0 0 0
1379 56 2 0.0000000000000000e+00 -1.1425435515594664e+02 2.6212291345099970e+01 -1.2964629053539699e+02 0 0 0
1381 56 2 0.0000000000000000e+00 -1.0055119699034663e+02 3.5316685938294469e+01 -1.3439929505015490e+02 0 0 0
1380 56 2 0.0000000000000000e+00 -1.1070013196942070e+02 3.3664704852737778e+01 -1.3462389635868999e+02 0 0 0
1382 56 1 0.0000000000000000e+00 -9.3283058230699041e+01 2.8313929055889272e+01 -1.3678385205403001e+02 0 0 0
2957 119 3 0.0000000000000000e+00 -8.6704600644108808e+01 3.5417077476316280e+01 -1.3230385671723013e+02 0 0 0
3916 157 4 0.0000000000000000e+00 -7.8331569046094216e+01 2.7888884653171885e+01 -1.3395676512831935e+02 0 0 0
3915 157 4 0.0000000000000000e+00 -7.6610950795429574e+01 3.8028320115331773e+01 -1.3291647560325379e+02 0 0 0
738 30 1 0.0000000000000000e+00 -6.7401503741308758e+01 2.8254362955465972e+01 -1.3255851891081184e+02 0 0 0
737 30 2 0.0000000000000000e+00 -5.7114911773840909e+01 2.9704900348901152e+01 -1.3026096444336972e+02 0 0 0
736 30 2 0.0000000000000000e+00 -4.8547111497638952e+01 3.0704861685057288e+01 -1.3535722550854695e+02 0 0 0
4847 194 4 0.0000000000000000e+00 -8.6123931616714799e+01 -5.9761998196574389e+01 -1.2378506345839473e+02 0 0 0
4846 194 4 0.0000000000000000e+00 -7.6693669389579796e+01 -6.0711398893425581e+01 -1.1993924653378650e+02 0 0 0
4845 194 4 0.0000000000000000e+00 -7.1011920420097724e+01 -5.9417674908455808e+01 -1.1190395456333340e+02 0 0 0
588 24 1 0.0000000000000000e+00 -6.3905672919207532e+01 -6.5935609151107741e+01 -1.1583323970617521e+02 0 0 0
587 24 2 0.0000000000000000e+00 -6.2491624806612805e+01 -5.9001484457022315e+01 -1.2293235299032381e+02 0 0 0
4463 179 3 0.0000000000000000e+00 -4.2217267333874858e+01 -5.9342501686407445e+01 -1.1683791270097642e+02 0 0 0
581 24 2 0.0000000000000000e+00 -7.3734005320565359e+01 -4.5330940672102130e+01 -1.1629946662797298e+02 0 0 0
2160 87 2 0.0000000000000000e+00 -5.8310205978513459e+01 -4.3970912508404226e+01 -1.1861082730480165e+02 0 0 0
2159 87 2 0.0000000000000000e+00 -5.4091466908647142e+01 -5.3212105046011757e+01 -1.2121548427576275e+02 0 0 0
4842 194 4 0.0000000000000000e+00 -4.9055550899022890e+01 -4.3295675572818709e+01 -1.1142232461478484e+02 0 0 0
1390 56 2 0.0000000000000000e+00 -1.0964181414037594e+02 -3.3296618992277175e+01 -1.1611759389900062e+02 0 0 0
305 13 2 0.0000000000000000e+00 -9.5424005688222181e+01 -3.0276915582704163e+01 -1.1215374120302938e+02 0 0 0
4456 179 4 0.0000000000000000e+00 -8.3182401573203421e+01 -4.0412527363523751e+01 -1.2142778539308746e+02 0 0 0
304 13 2 0.0000000000000000e+00 -8.7720017248602659e+01 -3.7093870181789221e+01 -1.1131603552659529e+02 0 0 0
4457 179 3 0.0000000000000000e+00 -7.5711171507946304e+01 -3.4448414690890409e+01 -1.1754728888184398e+02 0 0 0
4459 179 4 0.0000000000000000e+00 -5.8332751082601405e+01 -3.4863758886771379e+01 -1.2220797682542282e+02 0 0 0
4458 179 4 0.0000000000000000e+00 -6.7361700856821187e+01 -3.1856989648920823e+01 -1.2241613479576944e+02 0 0 0
2161 87 2 0.0000000000000000e+00 -6.4365309940132406e+01 -3.6875446905327344e+01 -1.1478497663762315e+02 0 0 0
3742 150 4 0.0000000000000000e+00 -1.1676039200088822e+02 -1.8811279277804985e+01 -1.1400020341637841e+02 0 0 0
3743 150 4 0.0000000000000000e+00 -1.0892104587580741e+02 -2.2792789145381583e+01 -1.1853054459595522e+02 0 0 0
3744 150 3 0.0000000000000000e+00 -9.9710407371130785e+01 -2.1955416460562489e+01 -1.2166559883157191e+02 0 0 0
2166 87 2 0.0000000000000000e+00 -8.8141871195420592e+01 -2.2911093212502294e+01 -1.1351787873485854e+02 0 0 0
2165 87 2 0.0000000000000000e+00 -8.6582774646355844e+01 -2.0597571765893445e+01 -1.2304175020314774e+02 0 0 0
2163 87 1 0.0000000000000000e+00 -7.3621980887763542e+01 -1.9900010737851076e+01 -1.1411755739144841e+02 0 0 0
2162 87 2 0.0000000000000000e+00 -6.8025703034000401e+01 -2.7848089046158034e+01 -1.1147657490495911e+02 0 0 0
2226 90 1 0.0000000000000000e+00 -5.8087827544321918e+01 -2.5024911669437291e+01 -1.1694743020929603e+02 0 0 0
3170 127 4 0.0000000000000000e+00 -4.2101120110902158e+01 -2.3955791388083970e+01 -1.1711567822382108e+02 0 0 0
3169 127 3 0.0000000000000000e+00 -4.9157230021192433e+01 -2.7483291034529405e+01 -1.1134113872080086e+02 0 0 0
3745 150 4 0.0000000000000000e+00 -9.7910363438933288e+01 -1.5236636041247532e+01 -1.1455880629160693e+02 0 0 0
3746 150 4 0.0000000000000000e+00 -9.8123588897837990e+01 -6.1492362319378788e+00 -1.1817690152177208e+02 0 0 0
2164 87 2 0.0000000000000000e+00 -8.2538388565072566e+01 -1.5272677718982029e+01 -1.1547568028661324e+02 0 0 0
3058 123 4 0.0000000000000000e+00 -7.0269053120941976e+01 -1.2342113865631440e+01 -1.2348557002099969e+02 0 0 0
1995 80 2 0.0000000000000000e+00 -7.7949075248398657e+01 -3.2546331772062489e+00 -1.1680719827396128e+02 0 0 0
3057 123 3 0.0000000000000000e+00 -6.4357797300730397e+01 -1.2919444473299231e+01 -1.1550212044233737e+02 0 0 0
1994 80 1 0.0000000000000000e+00 -6.7676203756858428e+01 -3.4855991923028840e+00 -1.1525796869363748e+02 0 0 0
1673 67 2 0.0000000000000000e+00 -6.0054385726792525e+01 -6.0692578115854436e+00 -1.2114865029388478e+02 0 0 0
2397 96 2 0.0000000000000000e+00 -5.1689350833001356e+01 -1.0154610677810071e+01 -1.1757844475634474e+02 0 0 0
2396 96 2 0.0000000000000000e+00 -4.2516645781218458e+01 -8.2074191966110064e+00 -1.1568737427762949e+02 0 0 0
1672 67 2 0.0000000000000000e+00 -5.4334218039952638e+01 -1.9718606790194126e+00 -1.1347155561820495e+02 0 0 0
3959 159 4 0.0000000000000000e+00 -1.2582179133946275e+02 1.0054318640018336e+01 -1.2341497887532709e+02 0 0 0
3960 159 4 0.0000000000000000e+00 -1.2190963210430604e+02 2.9520966614476594e+00 -1.1737349843848540e+02 0 0 0
1377 56 2 0.0000000000000000e+00 -1.1410004236222383e+02 1.0191197640035281e+01 -1.1788700584700788e+02 0 0 0
309 13 2 0.0000000000000000e+00 -1.0204828969841473e+02 3.0926893114979319e+00 -1.1371276121004004e+02 0 0 0
3152 127 4 0.0000000000000000e+00 -9.4031833452412315e+01 9.4014199911908136e+00 -1.1821902265953194e+02 0 0 0
3153 127 4 0.0000000000000000e+00 -8.4935469694573214e+01 6.2645480684550483e+00 -1.1618832285172432e+02 0 0 0
3922 157 4 0.0000000000000000e+00 -8.0036336561592023e+01 3.1088402042362211e+00 -1.2393805327039674e+02 0 0 0
3923 157 4 0.0000000000000000e+00 -7.2906318942306115e+01 8.9631128906822717e+00 -1.1970089698880363e+02 0 0 0
3200 128 3 0.0000000000000000e+00 -6.2286953493267553e+01 3.4890680494277810e+00 -1.2234640259288845e+02 0 0 0
3199 128 4 0.0000000000000000e+00 -6.0195224343636205e+01 9.9417803732826080e+00 -1.1552913636948639e+02 0 0 0
1378 56 2 0.0000000000000000e+00 -1.1281781095111083e+02 1.7968108409021980e+01 -1.2394236013584873e+02 0 0 0
3151 127 3 0.0000000000000000e+00 -1.0345743697005194e+02 1.2887589953282250e+01 -1.1672293416498873e+02 0 0 0
3952 159 4 0.0000000000000000e+00 -9.8244309817421424e+01 2.4475835065942029e+01 -1.2239969311283014e+02 0 0 0
3953 159 4 0.0000000000000000e+00 -9.1119242718521292e+01 1.7591502567678194e+01 -1.2204973012434029e+02 0 0 0
3925 157 3 0.0000000000000000e+00 -8.7732059351918267e+01 1.7145162219507146e+01 -1.1105274657447742e+02 0 0 0
3924 157 4 0.0000000000000000e+00 -7.9417480015048781e+01 1.6336227302825801e+01 -1.1669465003163518e+02 0 0 0
740 30 2 0.0000000000000000e+00 -7.1701831689854600e+01 2.5687091982862558e+01 -1.1342643391340570e+02 0 0 0
2067 83 2 0.0000000000000000e+00 -5.8704577629890728e+01 1.2802619942263648e+01 -1.2481722043572989e+02 0 0 0
2068 83 2 0.0000000000000000e+00 -5.8644706531779768e+01 2.1863573050886590e+01 -1.2072255720314733e+02 0 0 0
3198 128 4 0.0000000000000000e+00 -5.2486644360836330e+01 1.6658950540602980e+01 -1.1468751395018398e+02 0 0 0
704 29 2 0.0000000000000000e+00 -4.3445890388011186e+01 1.8838208193887436e+01 -1.2222311634087532e+02 0 0 0
3951 159 3 0.0000000000000000e+00 -1.0620885016170924e+02 3.0929282764593527e+01 -1.2140354689081036e+02 0 0 0
1733 70 2 0.0000000000000000e+00 -9.9771512392561718e+01 3.5972524617031674e+01 -1.1315734579542438e+02 0 0 0
2960 119 4 0.0000000000000000e+00 -9.4388811251219224e+01 3.4634371327293273e+01 -1.2140983688296519e+02 0 0 0
2959 119 4 0.0000000000000000e+00 -8.8648293087286717e+01 2.7220457649442462e+01 -1.1688970027029144e+02 0 0 0
2958 119 4 0.0000000000000000e+00 -8.3533343927005234e+01 3.1880194265473417e+01 -1.2342919481767900e+02 0 0 0
739 30 2 0.0000000000000000e+00 -7.0644222709850268e+01 2.7519832549088456e+01 -1.2328997706196664e+02 0 0 0
2070 83 2 0.0000000000000000e+00 -5.5592312386865721e+01 3.6755409966080343e+01 -1.2189806371885736e+02 0 0 0
2069 83 1 0.0000000000000000e+00 -5.6863210727142935e+01 2.9744136293960182e+01 -1.1472401886038416e+02 0 0 0
703 29 2 0.0000000000000000e+00 -4.3346966864875640e+01 2.8648658968420467e+01 -1.2073235185741311e+02 0 0 0
3631 146 4 0.0000000000000000e+00 -4.3992159475660429e+01 3.8642471269793020e+01 -1.1357929533329754e+02 0 0 0
591 24 2 0.0000000000000000e+00 -5.3746633524054680e+01 -8.6142204591590996e+01 -9.7562328294612939e+01 0 0 0
589 24 2 0.0000000000000000e+00 -6.4313198505258597e+01 -7.3064656306614651e+01 -1.0793194255484354e+02 0 0 0
590 24 2 0.0000000000000000e+00 -5.9471129049654408e+01 -7.9236031573767221e+01 -1.0210473453934148e+02 0 0 0
4844 194 3 0.0000000000000000e+00 -6.1941199687611451e+01 -5.7259745538463505e+01 -1.0864924293039232e+02 0 0 0
4465 179 4 0.0000000000000000e+00 -4.5586146773971301e+01 -6.9900646731511685e+01 -1.0362792487390816e+02 0 0 0
4464 179 4 0.0000000000000000e+00 -4.9668600134401089e+01 -6.3974772478851079e+01 -1.1096563219122444e+02 0 0 0
579 24 2 0.0000000000000000e+00 -8.7344914175767002e+01 -5.1665139206755128e+01 -1.0377973342508498e+02 0 0 0
580 24 2 0.0000000000000000e+00 -7.9311805637381283e+01 -5.0042774466018365e+01 -1.0979782730924155e+02 0 0 0
4843 194 4 0.0000000000000000e+00 -5.6625218480437638e+01 -4.9035933984441257e+01 -1.0898380530460105e+02 0 0 0
4172 167 4 0.0000000000000000e+00 -5.3803918921199646e+01 -5.3691727652498301e+01 -9.8006532126191402e+01 0 0 0
4173 167 4 0.0000000000000000e+00 -4.5546096059806004e+01 -4.9334075326153162e+01 -1.0229897584721917e+02 0 0 0
1391 56 2 0.0000000000000000e+00 -1.1323869383501901e+02 -2.9736079870322669e+01 -1.0704712951708271e+02 0 0 0
303 13 2 0.0000000000000000e+00 -9.1090033572762351e+01 -3.4664142112242111e+01 -1.0131740009586403e+02 0 0 0
2168 87 2 0.0000000000000000e+00 -7.8901738819025496e+01 -3.6517643839113298e+01 -1.0610820961100620e+02 0 0 0
2169 87 1 0.0000000000000000e+00 -7.0327763183792811e+01 -3.9812811515594099e+01 -1.0347172904678138e+02 0 0 0
2170 87 2 0.0000000000000000e+00 -6.3251909878302286e+01 -3.6840048924483852e+01 -9.7437092064057126e+01 0 0 0
3168 127 4 0.0000000000000000e+00 -5.3654487438972843e+01 -3.0879710187722932e+01 -1.0297387709549490e+02 0 0 0
4841 194 4 0.0000000000000000e+00 -4.5139276836927245e+01 -3.4936676851425659e+01 -1.0723760935810168e+02 0 0 0
3741 150 4 0.0000000000000000e+00 -1.2209667529221748e+02 -2.3095596702381282e+01 -1.0603649887246709e+02 0 0 0
1392 56 2 0.0000000000000000e+00 -1.1102643196250018e+02 -2.3655400362676666e+01 -9.9339104390516141e+01 0 0 0
306 13 2 0.0000000000000000e+00 -1.0268022850195452e+02 -2.3326484092804474e+01 -1.0961651805381678e+02 0 0 0
302 13 2 0.0000000000000000e+00 -9.6015138950309378e+01 -2.6635007229510151e+01 -9.8191336476104738e+01 0 0 0
301 13 1 0.0000000000000000e+00 -9.6778783478663200e+01 -1.6518554158089469e+01 -9.7281909463157874e+01 0 0 0
2167 87 2 0.0000000000000000e+00 -8.2531832156866571e+01 -2.7379696453966556e+01 -1.0668279609476981e+02 0 0 0
3166 127 4 0.0000000000000000e+00 -6.9431668990474037e+01 -2.0998850315949678e+01 -1.0288295675913349e+02 0 0 0
3165 127 4 0.0000000000000000e+00 -7.7087068297035259e+01 -1.5884204211679794e+01 -9.9015718323829248e+01 0 0 0
3167 127 4 0.0000000000000000e+00 -6.1544227469858896e+01 -2.6180144244433247e+01 -9.9625010716343780e+01 0 0 0
3056 123 4 0.0000000000000000e+00 -5.6784363991441261e+01 -1.6687844651480443e+01 -1.0991901762644510e+02 0 0 0
3055 123 4 0.0000000000000000e+00 -5.0342910592309991e+01 -2.0275806403151400e+01 -1.0314184686459129e+02 0 0 0
3962 159 4 0.0000000000000000e+00 -1.1554143707537936e+02 -9.6762288747409375e+00 -1.0407067478895205e+02 0 0 0
3961 159 4 0.0000000000000000e+00 -1.2099130236045409e+02 -3.7230964196085568e+00 -1.1018970058912996e+02 0 0 0
308 13 2 0.0000000000000000e+00 -1.0535671381707971e+02 -5.1238880664224054e+00 -1.0946726301627595e+02 0 0 0
307 13 1 0.0000000000000000e+00 -1.0758352196304476e+02 -1.4691393180575192e+01 -1.0926474826914242e+02 0 0 0
3963 159 3 0.0000000000000000e+00 -1.0745121277194491e+02 -1.0686819469774852e+01 -9.8206979899951463e+01 0 0 0
1996 80 2 0.0000000000000000e+00 -8.3383433319172653e+01 -5.7810973680778872e+00 -1.0884080320150954e+02 0 0 0
3155 127 4 0.0000000000000000e+00 -7.3420763595412339e+01 -1.7205499071518524e+00 -1.0175776662067921e+02 0 0 0
1993 80 2 0.0000000000000000e+00 -6.1716955785260311e+01 -5.6243978367718119e+00 -1.0700306031837009e+02 0 0 0
1992 80 2 0.0000000000000000e+00 -5.7247598948183700e+01 -9.9686705414678851e+00 -9.8834682295384084e+01 0 0 0
1671 67 2 0.0000000000000000e+00 -4.9217968340779557e+01 -5.1473499290768965e+00 -1.0536691419318869e+02 0 0 0
1376 56 1 0.0000000000000000e+00 -1.1124851718327881e+02 1.0825059907307322e+01 -1.0811839870352362e+02 0 0 0
1998 80 2 0.0000000000000000e+00 -1.0109893873450652e+02 2.6710479630917217e+00 -1.0295690354776320e+02 0 0 0
310 13 2 0.0000000000000000e+00 -9.7289360949650828e+01 9.2783222661527613e+00 -1.0772574161036772e+02 0 0 0
1997 80 2 0.0000000000000000e+00 -9.1897108561389558e+01 -1.1733897829166948e+00 -1.0655184089467328e+02 0 0 0
3966 159 4 0.0000000000000000e+00 -8.3712235008404647e+01 6.5890631249131069e+00 -9.9602327665263502e+01 0 0 0
3154 127 4 0.0000000000000000e+00 -7.8817095188677499e+01 3.7723348802337524e+00 -1.0832872796623995e+02 0 0 0
3968 159 4 0.0000000000000000e+00 -6.9871968095008185e+01 1.2041673012607975e+01 -1.0643504753347551e+02 0 0 0
1403 57 2 0.0000000000000000e+00 -6.5733868428668345e+01 6.2809801619090075e+00 -9.9322005489110737e+01 0 0 0
3971 159 4 0.0000000000000000e+00 -4.1496116903154174e+01 8.0638524373030851e+00 -1.0755174750226244e+02 0 0 0
3970 159 4 0.0000000000000000e+00 -5.0640359243227131e+01 8.6105241662995553e+00 -1.0390407815397415e+02 0 0 0
311 13 2 0.0000000000000000e+00 -1.0161103904328168e+02 1.7646865204370037e+01 -1.0467496460091756e+02 0 0 0
3967 159 4 0.0000000000000000e+00 -7.9368133388944983e+01 1.2947138962458322e+01 -1.0594232476971496e+02 0 0 0
741 30 2 0.0000000000000000e+00 -7.7941426386084458e+01 2.3987084342835480e+01 -1.0531784960978348e+02 0 0 0
3969 159 3 0.0000000000000000e+00 -6.0001963574078786e+01 1.2480241587174316e+01 -1.0485085284970314e+02 0 0 0
144 6 1 0.0000000000000000e+00 -6.7543247531154179e+01 2.1054863203892772e+01 -1.0304155805459629e+02 0 0 0
3197 128 4 0.0000000000000000e+00 -4.6394907767893798e+01 2.3389658001262926e+01 -1.0971217663368277e+02 0 0 0
1731 70 2 0.0000000000000000e+00 -1.1224392517484249e+02 2.6295069279155104e+01 -1.0287087804995500e+02 0 0 0
313 13 1 0.0000000000000000e+00 -9.9742543667709000e+01 3.7747870850780238e+01 -9.9888059851446798e+01 0 0 0
1732 70 1 0.0000000000000000e+00 -1.0593480427661538e+02 2.8500060146624154e+01 -1.1028051051717652e+02 0 0 0
312 13 2 0.0000000000000000e+00 -1.0117519786029054e+02 2.6845991291078562e+01 -1.0012105028923149e+02 0 0 0
651 27 1 0.0000000000000000e+00 -9.2228883551917875e+01 2.6662402156506865e+01 -1.0633927177328533e+02 0 0 0
652 27 2 0.0000000000000000e+00 -9.0257137151742668e+01 3.3994884099966363e+01 -9.9142901963736605e+01 0 0 0
1734 70 2 0.0000000000000000e+00 -9.0006925904717704e+01 3.6423005212981295e+01 -1.0943044457964004e+02 0 0 0
1735 70 2 0.0000000000000000e+00 -8.0485510914967392e+01 3.5135994303313417e+01 -1.0871200310647508e+02 0 0 0
1736 70 2 0.0000000000000000e+00 -8.0140757194440212e+01 3.7718208315400375e+01 -9.8750341863851986e+01 0 0 0
145 6 2 0.0000000000000000e+00 -6.0354198985793111e+01 2.7944307664149946e+01 -1.0315804311103344e+02 0 0 0
3553 143 4 0.0000000000000000e+00 -6.7127451954271777e+01 3.5551496173974613e+01 -9.7601736775801484e+01 0 0 0
146 6 2 0.0000000000000000e+00 -5.2335378705024809e+01 3.2900976882671550e+01 -1.0365441226942788e+02 0 0 0
147 6 2 0.0000000000000000e+00 -4.3158465273367916e+01 3.5607136866721703e+01 -1.0202326718829882e+02 0 0 0
3835 154 4 0.0000000000000000e+00 -8.1715992682488206e+01 -7.3754939917797330e+01 -9.1409467666095892e+01 0 0 0
592 24 2 0.0000000000000000e+00 -4.9687185477865569e+01 -8.0327371286694245e+01 -9.0712352695153498e+01 0 0 0
3836 154 4 0.0000000000000000e+00 -8.0284936870418775e+01 -6.3892482379001763e+01 -9.3610757179582080e+01 0 0 0
4166 167 4 0.0000000000000000e+00 -7.1826780827580691e+01 -6.6355375406259469e+01 -8.4745821551796439e+01 0 0 0