LAMMPS data file via write_data, version 5 Jun 2019, timestep = 330000000

5000 atoms
4 atom types
5245 bonds
3 bond types
4600 angles
2 angle types

-2.5000000000000000e+02 2.5000000000000000e+02 xlo xhi
-2.5000000000000000e+02 2.5000000000000000e+02 ylo yhi
-2.5000000000000000e+02 2.5000000000000000e+02 zlo zhi

Masses

1 1000
2 1000
3 1000
4 1000

Pair Coeffs # lj/cut

1 0.3 10
2 0.3 10
3 0.3 10
4 0.3 10

Bond Coeffs # harmonic

1 3 10
2 3 10
3 1.8 11.22

Angle Coeffs # cosine

1 2
2 2

Atoms # full

2778 112 4 0.0000000000000000e+00 -2.6060400470124574e+01 -6.8552768432189325e+01 -1.8286388976552206e+02 0 0 0
2777 112 4 0.0000000000000000e+00 -1.7129904610643059e+01 -6.4309245162678891e+01 -1.8215974271820409e+02 0 0 0
578 24 2 0.0000000000000000e+00 -5.8048463183011030e+01 -5.0434305812516769e+01 -1.8136010449621361e+02 0 0 0
2779 112 4 0.0000000000000000e+00 -2.7882711019320990e+01 -6.7408702567062249e+01 -1.7279102752653321e+02 0 0 0
576 24 1 0.0000000000000000e+00 -6.6072370834017136e+01 -6.5214344819186778e+01 -1.7788379753252300e+02 0 0 0
577 24 2 0.0000000000000000e+00 -5.9458332463350153e+01 -5.8148249846425095e+01 -1.7419551466601868e+02 0 0 0
2227 90 2 0.0000000000000000e+00 -2.0344459848097280e+01 -5.3292196701877067e+01 -1.7319924206879088e+02 0 0 0
2226 90 1 0.0000000000000000e+00 -1.8077010355297848e+01 -6.2673495103480455e+01 -1.7008658619210351e+02 0 0 0
2776 112 3 0.0000000000000000e+00 -1.0350610069946379e+01 -5.8473125998174531e+01 -1.7764306768332781e+02 0 0 0
579 24 2 0.0000000000000000e+00 -6.3746814384454943e+01 -4.2164548184769991e+01 -1.8085008548908678e+02 0 0 0
580 24 2 0.0000000000000000e+00 -6.6685397578392781e+01 -4.7824418586233605e+01 -1.7301468094647436e+02 0 0 0
2162 87 2 0.0000000000000000e+00 -5.9625649473390702e+01 -4.1013193522928937e+01 -1.6918228340627348e+02 0 0 0
2161 87 2 0.0000000000000000e+00 -5.2074747654309441e+01 -4.1491413183852465e+01 -1.7610745564677688e+02 0 0 0
2229 90 2 0.0000000000000000e+00 -3.6305882087425886e+01 -4.5376456539340609e+01 -1.6707315900928023e+02 0 0 0
2228 90 2 0.0000000000000000e+00 -2.8759015166384536e+01 -4.8431114159635129e+01 -1.7413948749502509e+02 0 0 0
2160 87 2 0.0000000000000000e+00 -4.3488482133347162e+01 -3.7846331413587237e+01 -1.7326122923334742e+02 0 0 0
2159 87 2 0.0000000000000000e+00 -3.3862658318342611e+01 -3.5440688579949658e+01 -1.7406368124549010e+02 0 0 0
3653 147 4 0.0000000000000000e+00 -1.9149419471225759e+01 -3.1135014688946072e+01 -1.7573896086984072e+02 0 0 0
2158 87 2 0.0000000000000000e+00 -2.4637378682840158e+01 -3.8040800614976128e+01 -1.6974179828929996e+02 0 0 0
3654 147 4 0.0000000000000000e+00 -9.6121696783662500e+00 -3.5473559544312366e+01 -1.7644708158192373e+02 0 0 0
1117 45 2 0.0000000000000000e+00 -7.0525370410154533e+00 -2.9074772671421186e+01 -1.6888328934853052e+02 0 0 0
3655 147 4 0.0000000000000000e+00 -5.6289147064720940e-03 -3.5345797298100806e+01 -1.7419236985611130e+02 0 0 0
3656 147 4 0.0000000000000000e+00 5.4103243263290688e+00 -2.9143156926462769e+01 -1.6922664091758128e+02 0 0 0
3903 157 4 0.0000000000000000e+00 -7.5048962508398688e+01 -1.9785967524240291e+01 -1.7168489434034171e+02 0 0 0
3652 147 4 0.0000000000000000e+00 -2.3031360152736124e+01 -2.4193084334670949e+01 -1.6968822871244109e+02 0 0 0
1115 45 2 0.0000000000000000e+00 -1.5055831760293277e+01 -1.5297137699787148e+01 -1.8085883850487048e+02 0 0 0
1116 45 2 0.0000000000000000e+00 -1.2665803200736699e+01 -2.2836247704160815e+01 -1.7463538198063046e+02 0 0 0
4882 196 3 0.0000000000000000e+00 -1.7623368367468508e+01 -1.4031878589345258e+01 -1.6946457089978983e+02 0 0 0
2451 99 1 0.0000000000000000e+00 -6.8760194942245167e+00 -1.2723780183327307e+01 -1.7326808621194417e+02 0 0 0
2165 87 2 0.0000000000000000e+00 -6.4788941942721848e+01 -6.2346089697476813e+01 -1.5672967319595369e+02 0 0 0
2164 87 2 0.0000000000000000e+00 -6.8423216117325723e+01 -5.4080654668411597e+01 -1.6158317347567780e+02 0 0 0
4460 179 4 0.0000000000000000e+00 -4.7538730227823095e+01 -5.6928954562623566e+01 -1.6179019170920819e+02 0 0 0
4461 179 4 0.0000000000000000e+00 -3.8609288548170802e+01 -6.0011291191730194e+01 -1.5731591689986908e+02 0 0 0
2780 112 4 0.0000000000000000e+00 -3.1596232127849547e+01 -6.0682713631296373e+01 -1.6599367440532691e+02 0 0 0
2785 112 4 0.0000000000000000e+00 4.9657649292009882e+00 -6.4698884183929252e+01 -1.6270790150387191e+02 0 0 0
2784 112 4 0.0000000000000000e+00 -1.2010756972648537e+00 -5.6813391160643263e+01 -1.6146089981650934e+02 0 0 0
581 24 2 0.0000000000000000e+00 -7.4011121184629616e+01 -4.7203586120709865e+01 -1.6640417764740911e+02 0 0 0
582 24 1 0.0000000000000000e+00 -7.8296418024564389e+01 -4.6620912005092578e+01 -1.5772498938845436e+02 0 0 0
2163 87 1 0.0000000000000000e+00 -6.4621233683675257e+01 -4.4934295873822059e+01 -1.6202137575980910e+02 0 0 0
4459 179 4 0.0000000000000000e+00 -5.5357064888633701e+01 -5.0852769565127723e+01 -1.6467754426414203e+02 0 0 0
4458 179 4 0.0000000000000000e+00 -5.5461720193107837e+01 -4.2510675242218426e+01 -1.5883682706777546e+02 0 0 0
2055 83 2 0.0000000000000000e+00 -3.6953903600910849e+01 -4.8592054743522731e+01 -1.5436443126202676e+02 0 0 0
2781 112 4 0.0000000000000000e+00 -2.7515825282995497e+01 -5.2447314656932619e+01 -1.6106644166352581e+02 0 0 0
2056 83 2 0.0000000000000000e+00 -2.8078618795821711e+01 -4.3849295774760805e+01 -1.5479449201609069e+02 0 0 0
2782 112 3 0.0000000000000000e+00 -1.8379886738186585e+01 -4.9210629553770509e+01 -1.6379066083754432e+02 0 0 0
2783 112 4 0.0000000000000000e+00 -8.8675654449829189e+00 -5.1149138785719842e+01 -1.6336157390949998e+02 0 0 0
3902 157 4 0.0000000000000000e+00 -7.5846558776154041e+01 -2.7389864834737800e+01 -1.6512898350063924e+02 0 0 0
3901 157 3 0.0000000000000000e+00 -7.8853831230040740e+01 -3.6481339210807619e+01 -1.6193051377947432e+02 0 0 0
4457 179 3 0.0000000000000000e+00 -6.1740420455145895e+01 -3.5018878221398019e+01 -1.5691868271941149e+02 0 0 0
4456 179 4 0.0000000000000000e+00 -7.0715921492053283e+01 -3.2906959108009318e+01 -1.5331610744803737e+02 0 0 0
2015 81 2 0.0000000000000000e+00 -4.8319502210716557e+01 -2.9994109155042793e+01 -1.5535724406387411e+02 0 0 0
2230 90 2 0.0000000000000000e+00 -3.7590104785856099e+01 -3.6429402284426814e+01 -1.6135259933159807e+02 0 0 0
2231 90 2 0.0000000000000000e+00 -3.7979316736961138e+01 -2.6491025702262284e+01 -1.6176612791817629e+02 0 0 0
2157 87 1 0.0000000000000000e+00 -1.8985905870324792e+01 -3.8654770334640475e+01 -1.6167224856771603e+02 0 0 0
1118 45 2 0.0000000000000000e+00 -1.4327375625182837e+00 -3.1875821520057105e+01 -1.6063614560107388e+02 0 0 0
1568 63 2 0.0000000000000000e+00 -5.5137618394402274e+01 -2.0890072414383798e+01 -1.5407834984097943e+02 0 0 0
1567 63 2 0.0000000000000000e+00 -4.9385322000589625e+01 -1.3931148076550572e+01 -1.5898459452141429e+02 0 0 0
2232 90 1 0.0000000000000000e+00 -3.8548480668181611e+01 -1.6745411565674981e+01 -1.5861532602793125e+02 0 0 0
3651 147 3 0.0000000000000000e+00 -3.1727756762134014e+01 -1.9081729626865791e+01 -1.6682668015526590e+02 0 0 0
3067 123 4 0.0000000000000000e+00 -2.8892223433031567e+01 -2.1335541599696249e+01 -1.5638079269017464e+02 0 0 0
3068 123 4 0.0000000000000000e+00 -2.6011811264377393e+01 -1.2166750480325730e+01 -1.6083330921390765e+02 0 0 0
4881 196 4 0.0000000000000000e+00 -9.8428988971055471e+00 -1.6251252856093569e+01 -1.6341578160439437e+02 0 0 0
2452 99 2 0.0000000000000000e+00 9.1112834932748321e-01 -1.3829360041992219e+01 -1.6638373818845622e+02 0 0 0
4880 196 4 0.0000000000000000e+00 -1.6118261440212489e+00 -1.9768175916395045e+01 -1.5894010119812268e+02 0 0 0
2453 99 2 0.0000000000000000e+00 8.3237099484386547e+00 -1.3510009097643923e+01 -1.6006107547356655e+02 0 0 0
4879 196 4 0.0000000000000000e+00 6.3413237526335129e+00 -2.3423092631337539e+01 -1.5375740759279975e+02 0 0 0
2167 87 2 0.0000000000000000e+00 -6.4878313934349393e+01 -7.3818839501084810e+01 -1.4081562594610529e+02 0 0 0
2272 91 2 0.0000000000000000e+00 3.3715886277623541e+00 -6.7410796579650750e+01 -1.3971118579208010e+02 0 0 0
2166 87 2 0.0000000000000000e+00 -6.5493726856320578e+01 -6.6299049707177346e+01 -1.4732439294303194e+02 0 0 0
4948 198 4 0.0000000000000000e+00 -5.6014403550526389e+01 -6.6226010767995746e+01 -1.4211552219996531e+02 0 0 0
4949 198 4 0.0000000000000000e+00 -5.0932271884319206e+01 -6.0171930776270166e+01 -1.4851607785913222e+02 0 0 0
2053 83 2 0.0000000000000000e+00 -4.4775550335032534e+01 -5.7344383311035884e+01 -1.3945987940842045e+02 0 0 0
4462 179 4 0.0000000000000000e+00 -3.2225995251485301e+01 -6.4297791713012231e+01 -1.5119700897795289e+02 0 0 0
2054 83 2 0.0000000000000000e+00 -3.8431168337581639e+01 -5.3950867590776468e+01 -1.4592505572063703e+02 0 0 0
4463 179 3 0.0000000000000000e+00 -2.8454357469012987e+01 -6.3309835138924434e+01 -1.4162425818739362e+02 0 0 0
2274 91 2 0.0000000000000000e+00 4.7143473186351953e-01 -5.3571204344934088e+01 -1.4441628945896701e+02 0 0 0
2273 91 2 0.0000000000000000e+00 -4.6145619428109717e+00 -6.1072253257330161e+01 -1.4011683272145675e+02 0 0 0
583 24 2 0.0000000000000000e+00 -7.0069822380331971e+01 -4.4396268727994183e+01 -1.5124384754390121e+02 0 0 0
584 24 2 0.0000000000000000e+00 -6.8173472139428583e+01 -4.2122158876126939e+01 -1.4142220281720822e+02 0 0 0
4950 198 3 0.0000000000000000e+00 -4.5944163277129469e+01 -5.2614921928605000e+01 -1.5297085828752617e+02 0 0 0
1571 63 2 0.0000000000000000e+00 -5.6526694940914332e+01 -4.3481516392826947e+01 -1.4420709890829161e+02 0 0 0
750 30 1 0.0000000000000000e+00 -4.6185818775335946e+01 -4.3358278011253596e+01 -1.4643611516298793e+02 0 0 0
749 30 2 0.0000000000000000e+00 -3.7006035063512726e+01 -4.1692359913037805e+01 -1.4391529235743604e+02 0 0 0
2155 87 2 0.0000000000000000e+00 -1.8433349546679498e+01 -5.0155759901089176e+01 -1.4687902403035434e+02 0 0 0
2156 87 2 0.0000000000000000e+00 -1.6175325685063388e+01 -4.1451542269581005e+01 -1.5206517132583372e+02 0 0 0
2275 91 1 0.0000000000000000e+00 7.8978477791407702e+00 -4.7100511755268549e+01 -1.4033234848570524e+02 0 0 0
4455 179 4 0.0000000000000000e+00 -7.9674405126109988e+01 -3.3706874772485207e+01 -1.4809417397401469e+02 0 0 0
1570 63 2 0.0000000000000000e+00 -6.1655748706994629e+01 -3.4432071246322529e+01 -1.4655688593334744e+02 0 0 0
2014 81 2 0.0000000000000000e+00 -5.1826703683279149e+01 -2.9416157725028800e+01 -1.4619154039268577e+02 0 0 0
3065 123 4 0.0000000000000000e+00 -3.7188267627285768e+01 -3.1324901072222762e+01 -1.4277593716130323e+02 0 0 0
2016 81 2 0.0000000000000000e+00 -4.0835064089623124e+01 -2.5520527580468784e+01 -1.4997632711897447e+02 0 0 0
3066 123 4 0.0000000000000000e+00 -3.0746302910720072e+01 -2.7706632198130464e+01 -1.4862215841490462e+02 0 0 0
2057 83 1 0.0000000000000000e+00 -2.3241654941987722e+01 -3.5142462795869200e+01 -1.5238243687784848e+02 0 0 0
748 30 2 0.0000000000000000e+00 -2.7763922346944177e+01 -3.8266189486505525e+01 -1.4116047690993392e+02 0 0 0
2058 83 2 0.0000000000000000e+00 -2.1931970237914665e+01 -2.5080649342865691e+01 -1.4999357331895581e+02 0 0 0
3176 128 3 0.0000000000000000e+00 -1.8263262291899629e+01 -3.2572363101309229e+01 -1.4295484220299281e+02 0 0 0
3177 128 4 0.0000000000000000e+00 -8.4164614201042127e+00 -3.0947692235859147e+01 -1.4145474538217070e+02 0 0 0
1119 45 1 0.0000000000000000e+00 4.5702422551790853e+00 -3.4374542663823043e+01 -1.5295182167543726e+02 0 0 0
2022 81 2 0.0000000000000000e+00 -8.4759433137865756e+01 -2.3638847070992398e+01 -1.4374232151140484e+02 0 0 0
2021 81 2 0.0000000000000000e+00 -7.6917402409524712e+01 -2.0883709979399033e+01 -1.4947805566458928e+02 0 0 0
1569 63 1 0.0000000000000000e+00 -6.1878450783114879e+01 -2.4388280283513140e+01 -1.4714323545580149e+02 0 0 0
2020 81 2 0.0000000000000000e+00 -7.0365577938037603e+01 -1.3374941836698973e+01 -1.5146568118211067e+02 0 0 0
3169 127 3 0.0000000000000000e+00 -5.4434858046017588e+01 -1.7808637887538318e+01 -1.4173050221435795e+02 0 0 0
2233 90 2 0.0000000000000000e+00 -3.3018406510511603e+01 -1.0976225039636423e+01 -1.5267358543945642e+02 0 0 0
2017 81 2 0.0000000000000000e+00 -4.5306209830172030e+01 -1.6189410835926338e+01 -1.4827271391017766e+02 0 0 0
2059 83 2 0.0000000000000000e+00 -2.5691690588275534e+01 -1.8743578288654085e+01 -1.4286669483905754e+02 0 0 0
731 30 2 0.0000000000000000e+00 -6.6761781870604402e+00 -1.8769850809662653e+01 -1.4602900598346079e+02 0 0 0
4885 196 4 0.0000000000000000e+00 -1.8348380758146803e+01 -1.2973505552842218e+01 -1.4232953458291277e+02 0 0 0
730 30 2 0.0000000000000000e+00 -4.2022892962164313e+00 -1.1063330685099388e+01 -1.5205843373071374e+02 0 0 0
2168 87 2 0.0000000000000000e+00 -7.1620356910062810e+01 -7.6003768519760996e+01 -1.3311634948746112e+02 0 0 0
2169 87 1 0.0000000000000000e+00 -7.0418900088150806e+01 -6.7278473390058352e+01 -1.2775934215788398e+02 0 0 0
4947 198 4 0.0000000000000000e+00 -5.1308430991034321e+01 -7.1997127780505721e+01 -1.3523646011700350e+02 0 0 0
4946 198 4 0.0000000000000000e+00 -4.7775368020869088e+01 -7.2939984527163190e+01 -1.2585875081348637e+02 0 0 0
4845 194 4 0.0000000000000000e+00 -7.3152578762829563e+01 -5.6532157381196569e+01 -1.3197498021829847e+02 0 0 0
4844 194 3 0.0000000000000000e+00 -7.9495567909025041e+01 -6.1558734550252474e+01 -1.2632507805205429e+02 0 0 0
4847 194 4 0.0000000000000000e+00 -6.0053160005256913e+01 -5.8810913552230176e+01 -1.3419804515909141e+02 0 0 0
4848 194 4 0.0000000000000000e+00 -5.7968388559946128e+01 -6.6555624701293837e+01 -1.2870177138619169e+02 0 0 0
2052 83 2 0.0000000000000000e+00 -4.0744238060732727e+01 -6.4375836528035379e+01 -1.3308361530356692e+02 0 0 0
1849 74 2 0.0000000000000000e+00 -3.4709893230715174e+01 -5.4657407633502686e+01 -1.2914335638083389e+02 0 0 0
4464 179 4 0.0000000000000000e+00 -2.5234344990258592e+01 -6.5604080061918381e+01 -1.3197388143066649e+02 0 0 0
1850 74 1 0.0000000000000000e+00 -2.5572894586946557e+01 -5.6050100430094069e+01 -1.3290464296788556e+02 0 0 0
2154 87 2 0.0000000000000000e+00 -1.6412050171503289e+01 -5.6199417853149114e+01 -1.3851266531642747e+02 0 0 0
2153 87 2 0.0000000000000000e+00 -1.2196301678894123e+01 -5.6094101488554450e+01 -1.2829766410983257e+02 0 0 0
1146 46 2 0.0000000000000000e+00 2.8539572126699571e+00 -5.8921598384037765e+01 -1.3195534448584857e+02 0 0 0
3059 123 4 0.0000000000000000e+00 -8.2344973170576807e+01 -4.0901224640623070e+01 -1.2953966032853984e+02 0 0 0
3060 123 4 0.0000000000000000e+00 -7.2382951108737046e+01 -4.3593626968213655e+01 -1.2807047402470400e+02 0 0 0
4846 194 4 0.0000000000000000e+00 -6.5790481710121242e+01 -5.0345712418694333e+01 -1.3478446690665777e+02 0 0 0
585 24 2 0.0000000000000000e+00 -6.0695418212786372e+01 -4.2188278748215865e+01 -1.3412683868882004e+02 0 0 0
1572 63 2 0.0000000000000000e+00 -5.0337850664831045e+01 -4.8289343613932893e+01 -1.3760221446484613e+02 0 0 0
586 24 2 0.0000000000000000e+00 -5.7308100362306327e+01 -4.9627882864399410e+01 -1.2857471193506404e+02 0 0 0
1573 63 2 0.0000000000000000e+00 -4.2732400158740695e+01 -4.8473470200433468e+01 -1.3176395876416737e+02 0 0 0
1574 63 2 0.0000000000000000e+00 -3.4673617578652099e+01 -4.2299825644803150e+01 -1.3154561337941524e+02 0 0 0
1575 63 1 0.0000000000000000e+00 -2.4916182185331820e+01 -4.0056119216603626e+01 -1.3147600066057760e+02 0 0 0
1147 46 2 0.0000000000000000e+00 2.3748846433369599e+00 -4.8980845623602143e+01 -1.3135629310067131e+02 0 0 0
1148 46 2 0.0000000000000000e+00 1.5837266952336957e+00 -3.9536167312906471e+01 -1.2847417464669749e+02 0 0 0
4454 179 4 0.0000000000000000e+00 -7.7622677431853106e+01 -3.2362213080278650e+01 -1.3826936227485299e+02 0 0 0
4453 179 4 0.0000000000000000e+00 -7.7279000146685249e+01 -2.7147359168395074e+01 -1.2954360976602183e+02 0 0 0
2012 81 2 0.0000000000000000e+00 -6.7907356879525153e+01 -2.5822119804066308e+01 -1.3748314818986091e+02 0 0 0
2013 81 1 0.0000000000000000e+00 -5.8365713453972575e+01 -2.7589484556402621e+01 -1.3828232283865316e+02 0 0 0
3062 123 4 0.0000000000000000e+00 -5.7019865664133583e+01 -3.2748784792805580e+01 -1.2786526856380603e+02 0 0 0
3063 123 3 0.0000000000000000e+00 -5.2372687290651406e+01 -3.6423857034969778e+01 -1.3544926996144380e+02 0 0 0
3064 123 4 0.0000000000000000e+00 -4.2696834044686014e+01 -3.7251630550340479e+01 -1.3671478404313015e+02 0 0 0
746 30 2 0.0000000000000000e+00 -3.8895527656674275e+01 -2.8438224229257688e+01 -1.3166236427840931e+02 0 0 0
747 30 2 0.0000000000000000e+00 -2.9874244685354697e+01 -3.0915178089117045e+01 -1.3518917863680176e+02 0 0 0
3269 131 3 0.0000000000000000e+00 -1.9135063865064968e+01 -3.1443608123284619e+01 -1.2676998090095411e+02 0 0 0
3268 131 4 0.0000000000000000e+00 -9.4117312594149318e+00 -3.1671478781574791e+01 -1.2941046509665907e+02 0 0 0
3178 128 4 0.0000000000000000e+00 3.1411945928310220e-01 -3.5101396748379308e+01 -1.3837248154126036e+02 0 0 0
2025 81 1 0.0000000000000000e+00 -1.0431974224552614e+02 -1.2523905487873304e+01 -1.2933602050483040e+02 0 0 0
2023 81 2 0.0000000000000000e+00 -8.9755216160760696e+01 -2.4394835027324032e+01 -1.3538897851491041e+02 0 0 0
2024 81 2 0.0000000000000000e+00 -9.7439970651233580e+01 -1.7924339543897609e+01 -1.3392698015676740e+02 0 0 0
2009 81 2 0.0000000000000000e+00 -8.5886910463923570e+01 -1.2835793755788897e+01 -1.2639736347856174e+02 0 0 0
2011 81 2 0.0000000000000000e+00 -7.5096691851285314e+01 -1.8603184423577211e+01 -1.3761805888863847e+02 0 0 0
2010 81 2 0.0000000000000000e+00 -8.3063682704695822e+01 -1.2722625018254801e+01 -1.3612631322064277e+02 0 0 0
3168 127 4 0.0000000000000000e+00 -6.3614313023358335e+01 -1.4487301593731349e+01 -1.3866867954189706e+02 0 0 0
4452 179 4 0.0000000000000000e+00 -7.1364193183811111e+01 -1.8937848233592906e+01 -1.2902286755403753e+02 0 0 0
4451 179 3 0.0000000000000000e+00 -6.1867133406188827e+01 -2.2722142357368519e+01 -1.2790211190038407e+02 0 0 0
2066 83 2 0.0000000000000000e+00 -5.4985237667137348e+01 -1.1113396007365919e+01 -1.3243105282508299e+02 0 0 0
3170 127 4 0.0000000000000000e+00 -4.5480168765311042e+01 -1.5131190445885471e+01 -1.3733974896594486e+02 0 0 0
734 30 2 0.0000000000000000e+00 -2.2591796622364011e+01 -1.5443453756711113e+01 -1.2744822921707113e+02 0 0 0
733 30 2 0.0000000000000000e+00 -2.0391809356949139e+01 -2.3078582595121709e+01 -1.3366312958451104e+02 0 0 0
732 30 1 0.0000000000000000e+00 -1.1185127187143564e+01 -2.2953681143090829e+01 -1.3777634423252755e+02 0 0 0
3183 128 4 0.0000000000000000e+00 -1.1661163129554657e+01 -1.3317984743245198e+01 -1.3154939851811508e+02 0 0 0
3182 128 3 0.0000000000000000e+00 -2.2099846666076366e+00 -1.6753454610642560e+01 -1.3234855917179294e+02 0 0 0
3181 128 4 0.0000000000000000e+00 6.5912490295174448e+00 -2.2173137555209472e+01 -1.3371916964914547e+02 0 0 0
2174 87 2 0.0000000000000000e+00 -7.4849991055799904e+01 -9.6282019198642587e+01 -1.1430532179717129e+02 0 0 0
2173 87 2 0.0000000000000000e+00 -6.5066533731627530e+01 -9.7162397768946860e+01 -1.1556360938616496e+02 0 0 0
2172 87 2 0.0000000000000000e+00 -5.8759213978001341e+01 -8.8833389782702582e+01 -1.1430504828657082e+02 0 0 0
4172 167 4 0.0000000000000000e+00 -4.3205271471588318e+01 -8.5419954113968799e+01 -1.1692579319260099e+02 0 0 0
1992 80 2 0.0000000000000000e+00 -9.3025468357371011e+01 -6.7508617598074764e+01 -1.1297294021196817e+02 0 0 0
1991 80 2 0.0000000000000000e+00 -8.4746267527065157e+01 -7.2113446260438010e+01 -1.1789560471282462e+02 0 0 0
1990 80 2 0.0000000000000000e+00 -7.6326072415882805e+01 -7.6199996675550040e+01 -1.1436164976003090e+02 0 0 0
2170 87 2 0.0000000000000000e+00 -6.7676567081153678e+01 -7.1929943331436135e+01 -1.1954387680423066e+02 0 0 0
2171 87 2 0.0000000000000000e+00 -6.3032628903359246e+01 -8.0723224749949821e+01 -1.1924922711591572e+02 0 0 0
4849 194 4 0.0000000000000000e+00 -5.6567511803171563e+01 -7.1471850415665060e+01 -1.1986149895178161e+02 0 0 0
2051 83 1 0.0000000000000000e+00 -3.4663731433542900e+01 -6.7600297465048385e+01 -1.2536094372713224e+02 0 0 0
4173 167 4 0.0000000000000000e+00 -3.6652725673701227e+01 -8.1023630531115288e+01 -1.2339006810273776e+02 0 0 0
4945 198 4 0.0000000000000000e+00 -4.4752317583802174e+01 -7.2338765953408128e+01 -1.1643163583441124e+02 0 0 0
261 11 2 0.0000000000000000e+00 -3.3499456803768304e+01 -7.4037913890772217e+01 -1.1495774061749185e+02 0 0 0
4174 167 4 0.0000000000000000e+00 -2.7967863492051396e+01 -7.6189962381152100e+01 -1.2423292522386799e+02 0 0 0
262 11 2 0.0000000000000000e+00 -2.4535599861457150e+01 -6.9137386958047486e+01 -1.1503889561004749e+02 0 0 0
4175 167 3 0.0000000000000000e+00 -1.8198670219912163e+01 -7.6997678338317684e+01 -1.2191043034427456e+02 0 0 0
263 11 1 0.0000000000000000e+00 -1.5464593599181955e+01 -7.1329953685822701e+01 -1.1186439228534530e+02 0 0 0
4471 179 4 0.0000000000000000e+00 6.8619325876007418e+00 -7.0810952606042449e+01 -1.1288748627735961e+02 0 0 0
4843 194 4 0.0000000000000000e+00 -7.8541455390107714e+01 -6.2492166803666223e+01 -1.1645051667689948e+02 0 0 0
587 24 2 0.0000000000000000e+00 -6.0138683950450762e+01 -5.5877919056316600e+01 -1.2075688456336987e+02 0 0 0
588 24 1 0.0000000000000000e+00 -5.4985876979063029e+01 -6.0834968415376402e+01 -1.1358280622406751e+02 0 0 0
1848 74 2 0.0000000000000000e+00 -4.2463346432187592e+01 -5.6903253047492868e+01 -1.2318556954573525e+02 0 0 0
1847 74 2 0.0000000000000000e+00 -4.5432755365644695e+01 -5.6441313007288713e+01 -1.1351901062815755e+02 0 0 0
4465 179 4 0.0000000000000000e+00 -2.4178127207297155e+01 -5.9256898699583978e+01 -1.2405776798884897e+02 0 0 0
1834 74 2 0.0000000000000000e+00 -3.1569061573175055e+01 -5.5554110968740602e+01 -1.1896115321339661e+02 0 0 0
2152 87 2 0.0000000000000000e+00 -5.1939361449622901e+00 -6.0688379587409841e+01 -1.2197105891822541e+02 0 0 0
2151 87 1 0.0000000000000000e+00 1.5735559274332680e+00 -6.0928626591067278e+01 -1.1445796911543950e+02 0 0 0
3061 123 4 0.0000000000000000e+00 -6.3776429171271978e+01 -3.9440019649788432e+01 -1.2482314040328041e+02 0 0 0
3273 131 4 0.0000000000000000e+00 -4.3861108770345261e+01 -4.1404025143926731e+01 -1.1660981414911711e+02 0 0 0
3272 131 4 0.0000000000000000e+00 -3.6953742739236311e+01 -4.6729287498537950e+01 -1.2141367162717610e+02 0 0 0
4466 179 4 0.0000000000000000e+00 -2.3371183762268046e+01 -4.9317245154562123e+01 -1.2208463382588984e+02 0 0 0
4781 192 4 0.0000000000000000e+00 -2.9948811038741074e+01 -4.1152944760130424e+01 -1.1328164304049200e+02 0 0 0
4467 179 4 0.0000000000000000e+00 -1.7113155420955053e+01 -4.5835929087518053e+01 -1.1464732981108577e+02 0 0 0
3058 123 4 0.0000000000000000e+00 -8.9625984292127910e+01 -3.6603650529445524e+01 -1.2342750083251056e+02 0 0 0
3057 123 3 0.0000000000000000e+00 -9.5818370003289488e+01 -2.9508209546005798e+01 -1.1997961796155911e+02 0 0 0
3161 127 4 0.0000000000000000e+00 -7.5944747093776400e+01 -3.1370151872719081e+01 -1.1389405455168770e+02 0 0 0
3160 127 4 0.0000000000000000e+00 -6.6981831095069552e+01 -3.6431414164462971e+01 -1.1558838296411136e+02 0 0 0
745 30 2 0.0000000000000000e+00 -4.6293221523913402e+01 -2.6362824766387380e+01 -1.2508234752601642e+02 0 0 0
744 30 1 0.0000000000000000e+00 -5.4292573310106192e+01 -2.5139762316604319e+01 -1.1936438985856370e+02 0 0 0
3274 131 4 0.0000000000000000e+00 -5.0031481100594711e+01 -3.4086135294213918e+01 -1.1380796056299143e+02 0 0 0
4779 192 4 0.0000000000000000e+00 -3.8900898706884981e+01 -2.8170269756096737e+01 -1.1864846409390854e+02 0 0 0
3271 131 4 0.0000000000000000e+00 -3.1192635033999551e+01 -3.8362694834282777e+01 -1.2256669398020948e+02 0 0 0
3270 131 4 0.0000000000000000e+00 -2.8177114980409549e+01 -2.8943882391257809e+01 -1.2444560700922159e+02 0 0 0
85 4 2 0.0000000000000000e+00 -2.3618462346499538e+01 -2.5023820111769595e+01 -1.1641451804266195e+02 0 0 0
1149 46 2 0.0000000000000000e+00 1.5113171620418588e+00 -3.0163297045680189e+01 -1.2438118222429175e+02 0 0 0
3056 123 4 0.0000000000000000e+00 -1.0143106581588208e+02 -2.2112873602916292e+01 -1.1504171486266355e+02 0 0 0
3975 159 3 0.0000000000000000e+00 -1.0470543338789405e+02 -1.2046545510702241e+01 -1.1790332602347557e+02 0 0 0
2008 81 2 0.0000000000000000e+00 -9.1755219183162950e+01 -1.5442041836572278e+01 -1.1819987539371991e+02 0 0 0
743 30 2 0.0000000000000000e+00 -5.9061910953891228e+01 -2.1240720818103625e+01 -1.1212947550255829e+02 0 0 0
2067 83 2 0.0000000000000000e+00 -5.2123488159954462e+01 -1.5474014417649071e+01 -1.2421449459119171e+02 0 0 0
2068 83 2 0.0000000000000000e+00 -5.2237745008185357e+01 -1.2495735011295521e+01 -1.1474044949545173e+02 0 0 0
4777 192 4 0.0000000000000000e+00 -3.4863927381122387e+01 -1.2762072714110001e+01 -1.1434504078390079e+02 0 0 0
4778 192 4 0.0000000000000000e+00 -3.9038919477048708e+01 -1.8221051785011728e+01 -1.2130446730316487e+02 0 0 0
943 38 2 0.0000000000000000e+00 -4.3951042573842471e+01 -1.8680009326196252e+01 -1.1243021632592904e+02 0 0 0
86 4 2 0.0000000000000000e+00 -1.6565575020614524e+01 -1.7525678648421717e+01 -1.1876916336536624e+02 0 0 0
3267 131 4 0.0000000000000000e+00 -7.4133752969507682e+00 -2.3725146073054926e+01 -1.2358853713548426e+02 0 0 0
3266 131 4 0.0000000000000000e+00 -8.3756915517393260e+00 -2.2749956481476264e+01 -1.1344217551815233e+02 0 0 0
4435 178 4 0.0000000000000000e+00 3.1882397842536507e+00 -2.0465714142664833e+01 -1.1570496048238400e+02 0 0 0
4434 178 4 0.0000000000000000e+00 7.1151175219725902e+00 -1.8801533237739161e+01 -1.2484740060044916e+02 0 0 0
575 23 1 0.0000000000000000e+00 3.1256262579478062e+00 -1.0252447919419684e+02 -1.0347026819554802e+02 0 0 0
3151 127 3 0.0000000000000000e+00 -7.8394823275723283e+01 -8.5093633510449436e+01 -1.1017846591092582e+02 0 0 0
3152 127 4 0.0000000000000000e+00 -7.3696503084689041e+01 -8.1361241485237571e+01 -1.0246947730459350e+02 0 0 0
2175 87 1 0.0000000000000000e+00 -7.1927659786854591e+01 -9.3245296346747153e+01 -1.0488112155425635e+02 0 0 0
4171 167 4 0.0000000000000000e+00 -4.8501942487563021e+01 -8.8360983429063481e+01 -1.0922285652716491e+02 0 0 0
1830 74 2 0.0000000000000000e+00 -4.5405814834693878e+01 -8.2250448646548904e+01 -9.8884043337271308e+01 0 0 0
3750 150 3 0.0000000000000000e+00 -9.5982116891752852e+01 -7.0520447030861007e+01 -1.0337738526974408e+02 0 0 0
1989 80 2 0.0000000000000000e+00 -6.7628365634679241e+01 -7.7467475511074554e+01 -1.0977041238977193e+02 0 0 0
1988 80 1 0.0000000000000000e+00 -6.3182347380072407e+01 -7.5404295724463751e+01 -1.0076168309674127e+02 0 0 0
4850 194 3 0.0000000000000000e+00 -5.9319036217265406e+01 -7.1195744679814354e+01 -1.1028221434637403e+02 0 0 0
4170 167 4 0.0000000000000000e+00 -5.2176668559282298e+01 -7.8882164010275943e+01 -1.0796592731546849e+02 0 0 0
4169 167 3 0.0000000000000000e+00 -5.3139930291634052e+01 -7.1688109495136686e+01 -1.0139586309798403e+02 0 0 0
4944 198 3 0.0000000000000000e+00 -4.2806984461641086e+01 -6.7241978185643021e+01 -1.0786783104299754e+02 0 0 0
1831 74 2 0.0000000000000000e+00 -3.7212279358133813e+01 -7.7706931650972493e+01 -1.0194617956244126e+02 0 0 0
1832 74 1 0.0000000000000000e+00 -3.2688072445427387e+01 -6.9164179520076658e+01 -1.0509613447276909e+02 0 0 0
260 11 2 0.0000000000000000e+00 -2.6521985354102743e+01 -7.8264189683134788e+01 -1.0967066339384472e+02 0 0 0
259 11 2 0.0000000000000000e+00 -2.3178960171185782e+01 -7.2539144106336508e+01 -1.0227254671164712e+02 0 0 0
264 11 2 0.0000000000000000e+00 -1.2116016035879976e+01 -7.7911853666230655e+01 -1.0470268761371793e+02 0 0 0
4470 179 4 0.0000000000000000e+00 -7.1752507927821685e-01 -6.9422966730546221e+01 -1.0624294117255339e+02 0 0 0
1994 80 1 0.0000000000000000e+00 -1.0391163577900652e+02 -6.2983887423726941e+01 -9.9464927050902190e+01 0 0 0
1993 80 2 0.0000000000000000e+00 -1.0245574680615665e+02 -6.4950142834506977e+01 -1.0918520167745528e+02 0 0 0
3749 150 4 0.0000000000000000e+00 -8.6862261698318363e+01 -6.6578251593032888e+01 -1.0219021437705709e+02 0 0 0
4842 194 4 0.0000000000000000e+00 -7.6924105237127151e+01 -6.5037023285266301e+01 -1.0687924344160692e+02 0 0 0
3748 150 4 0.0000000000000000e+00 -8.2545600039853554e+01 -5.7866824412366057e+01 -1.0168517209018451e+02 0 0 0
4841 194 4 0.0000000000000000e+00 -6.8888559541157520e+01 -5.9657138548480788e+01 -1.1077432969011006e+02 0 0 0
4840 194 4 0.0000000000000000e+00 -6.0680876763835293e+01 -5.3980720638048645e+01 -1.1006392384422190e+02 0 0 0
589 24 2 0.0000000000000000e+00 -5.6660248598034613e+01 -6.1519308646654466e+01 -1.0383877737127665e+02 0 0 0
4943 198 4 0.0000000000000000e+00 -4.3990770665149427e+01 -6.5439357017937070e+01 -9.8223148531088697e+01 0 0 0
1846 74 2 0.0000000000000000e+00 -4.2302172130411975e+01 -5.6420164650570015e+01 -1.0428319979822372e+02 0 0 0
1833 74 2 0.0000000000000000e+00 -3.1705227664052209e+01 -6.1092333493100831e+01 -1.1092609525684445e+02 0 0 0
4469 179 3 0.0000000000000000e+00 -7.0996697086314224e+00 -6.1348860340699787e+01 -1.0726455776387427e+02 0 0 0
4440 178 4 0.0000000000000000e+00 -1.1658438458123550e+01 -5.8310826386888344e+01 -9.8924811266004241e+01 0 0 0
2264 91 2 0.0000000000000000e+00 1.5068710240821386e+00 -5.3866992678159860e+01 -1.0562073911134534e+02 0 0 0
423 17 2 0.0000000000000000e+00 5.9624710988307141e+00 -6.3387022925657490e+01 -1.0150937806813371e+02 0 0 0
598 24 2 0.0000000000000000e+00 -9.5149376169511058e+01 -4.7825748272285303e+01 -1.0418287550484102e+02 0 0 0
3747 150 4 0.0000000000000000e+00 -8.0056019295186317e+01 -4.8135266554576411e+01 -1.0144376450942187e+02 0 0 0
3159 127 4 0.0000000000000000e+00 -6.9217218403005546e+01 -4.2594267073724446e+01 -1.0736116763779411e+02 0 0 0
4839 194 4 0.0000000000000000e+00 -5.8986428822591066e+01 -4.4234965027755926e+01 -1.1052910344305715e+02 0 0 0
1837 74 2 0.0000000000000000e+00 -5.3959560451756964e+01 -4.5118116724428972e+01 -1.0259217129190951e+02 0 0 0
1836 74 2 0.0000000000000000e+00 -4.5617651704202345e+01 -4.6578307292089463e+01 -1.0776533053486087e+02 0 0 0
1835 74 2 0.0000000000000000e+00 -3.7334824204398060e+01 -5.1201634981607420e+01 -1.1143764957422009e+02 0 0 0