LAMMPS data file via write_data, version 5 Jun 2019, timestep = 330000000

5000 atoms
4 atom types
5256 bonds
3 bond types
4600 angles
2 angle types

-2.5000000000000000e+02 2.5000000000000000e+02 xlo xhi
-2.5000000000000000e+02 2.5000000000000000e+02 ylo yhi
-2.5000000000000000e+02 2.5000000000000000e+02 zlo zhi

Masses

1 1000
2 1000
3 1000
4 1000

Pair Coeffs # lj/cut

1 0.3 10
2 0.3 10
3 0.3 10
4 0.3 10

Bond Coeffs # harmonic

1 3 10
2 3 10
3 1.8 11.22

Angle Coeffs # cosine

1 2
2 2

Atoms # full

3658 147 4 0.0000000000000000e+00 -1.6102802428697526e+01 -1.2293550085287585e+01 -1.9881133334916748e+02 0 0 0
2226 90 1 0.0000000000000000e+00 -4.6359423465307124e+01 -5.0071758172422584e+01 -1.8070278244312431e+02 0 0 0
2227 90 2 0.0000000000000000e+00 -4.8813803285379990e+01 -4.5763782685305223e+01 -1.8981994842116217e+02 0 0 0
4481 180 4 0.0000000000000000e+00 -6.2362676930030212e+01 -4.0496131316244110e+01 -1.8594377657662386e+02 0 0 0
2228 90 2 0.0000000000000000e+00 -5.4024011625263682e+01 -3.7166321540173399e+01 -1.9102085894499598e+02 0 0 0
4461 179 4 0.0000000000000000e+00 -4.6864997330041525e+01 -3.8581096778460228e+01 -1.8181328418937250e+02 0 0 0
2229 90 2 0.0000000000000000e+00 -5.9747790187316987e+01 -2.9181739413598248e+01 -1.9141025856897340e+02 0 0 0
2230 90 2 0.0000000000000000e+00 -6.2381823811650399e+01 -1.9805016162369370e+01 -1.8807834122860862e+02 0 0 0
4460 179 4 0.0000000000000000e+00 -4.3891092416186837e+01 -2.9394017833245520e+01 -1.8488238389607884e+02 0 0 0
4459 179 4 0.0000000000000000e+00 -3.8217008234103290e+01 -2.3112933070581136e+01 -1.9015543571256742e+02 0 0 0
4458 179 4 0.0000000000000000e+00 -2.8821633192387281e+01 -2.5828777042559736e+01 -1.8776837801217280e+02 0 0 0
4457 179 3 0.0000000000000000e+00 -1.9301575033599249e+01 -2.6385884360116705e+01 -1.8674182732171732e+02 0 0 0
2051 83 1 0.0000000000000000e+00 -1.1585440738171760e+01 -1.8471619262893071e+01 -1.8587156324378691e+02 0 0 0
4487 180 4 0.0000000000000000e+00 -7.5482009999091702e+01 -1.4545574459385620e+01 -1.8647688850900232e+02 0 0 0
4488 180 3 0.0000000000000000e+00 -7.0115362661592158e+01 -6.4284039043297456e+00 -1.8883089775611069e+02 0 0 0
2231 90 2 0.0000000000000000e+00 -6.3983133178548584e+01 -1.2943498304456458e+01 -1.8045314499732760e+02 0 0 0
3186 128 4 0.0000000000000000e+00 -2.6591414643407710e+01 -1.4122228183990787e+01 -1.8273426906101281e+02 0 0 0
3187 128 4 0.0000000000000000e+00 -3.5505760244344295e+01 -1.1475915910212262e+01 -1.8030167305606361e+02 0 0 0
576 24 1 0.0000000000000000e+00 -1.7740648011375303e+01 -9.3260431225868512e+00 -1.8855514944301416e+02 0 0 0
4479 180 4 0.0000000000000000e+00 -7.3309291699738353e+01 -3.4537425151748067e+01 -1.7045818138724798e+02 0 0 0
4480 180 4 0.0000000000000000e+00 -6.6828543837926844e+01 -3.6663028346238974e+01 -1.7778595213669280e+02 0 0 0
4483 180 4 0.0000000000000000e+00 -5.5914023512819448e+01 -3.3902623654353647e+01 -1.7605678954328380e+02 0 0 0
4482 180 3 0.0000000000000000e+00 -5.5730021533645413e+01 -4.3407151571418630e+01 -1.7857708363391791e+02 0 0 0
4462 179 4 0.0000000000000000e+00 -4.4391301436722998e+01 -4.2451533356468957e+01 -1.7234116362227812e+02 0 0 0
1175 47 1 0.0000000000000000e+00 -2.9999571508242671e+01 -3.8174980053889229e+01 -1.6805641267229566e+02 0 0 0
4455 179 4 0.0000000000000000e+00 -1.3149500900539419e+01 -3.9340718795894873e+01 -1.7272402795857653e+02 0 0 0
4456 179 4 0.0000000000000000e+00 -1.4893936052455521e+01 -3.2534681023084026e+01 -1.8012823832986774e+02 0 0 0
4485 180 4 0.0000000000000000e+00 -6.8842272306525288e+01 -2.0661308177925587e+01 -1.7649655300149431e+02 0 0 0
4484 180 4 0.0000000000000000e+00 -6.0599876342867141e+01 -2.5448449311591073e+01 -1.7892120848024663e+02 0 0 0
3181 128 4 0.0000000000000000e+00 -5.6893321814575067e+01 -1.9866457298070358e+01 -1.7052389748571235e+02 0 0 0
3182 128 3 0.0000000000000000e+00 -4.7627779846999339e+01 -2.3902577137627322e+01 -1.7158305661321168e+02 0 0 0
3183 128 4 0.0000000000000000e+00 -4.2219260250999497e+01 -3.1037677774953657e+01 -1.6680843128744908e+02 0 0 0
3184 128 4 0.0000000000000000e+00 -3.4074672267237318e+01 -2.7653978201951578e+01 -1.7181228194391016e+02 0 0 0
3185 128 4 0.0000000000000000e+00 -2.6173983906746205e+01 -2.3395633678259628e+01 -1.7758308255907943e+02 0 0 0
4326 174 3 0.0000000000000000e+00 -2.0748540028134219e+01 -3.1007917390411396e+01 -1.7158775712935099e+02 0 0 0
3073 123 4 0.0000000000000000e+00 -8.0694164805168185e+01 -6.5780183647092256e+00 -1.6619362172563530e+02 0 0 0
4486 180 4 0.0000000000000000e+00 -7.8446634319646463e+01 -1.6438210953118098e+01 -1.7652629256629297e+02 0 0 0
3180 128 4 0.0000000000000000e+00 -6.4560827871350369e+01 -1.3550014784456959e+01 -1.6919839225763295e+02 0 0 0
2232 90 1 0.0000000000000000e+00 -6.1597281067808439e+01 -4.6877470632146956e+00 -1.7599627950404869e+02 0 0 0
3188 128 3 0.0000000000000000e+00 -3.9074632961447861e+01 -1.1286687880149570e+01 -1.7095811692374298e+02 0 0 0
2056 83 2 0.0000000000000000e+00 -3.0767219982040917e+01 -6.7093110046480460e+00 -1.7233225228544879e+02 0 0 0
577 24 2 0.0000000000000000e+00 -2.0317935291537605e+01 -6.4721630073989207e+00 -1.7946333530585551e+02 0 0 0
578 24 2 0.0000000000000000e+00 -2.2111543206675524e+01 -1.2703552705192713e+01 -1.7190881271934771e+02 0 0 0
2475 99 1 0.0000000000000000e+00 -1.0047595361252643e+01 -6.0921448941251597e+01 -1.5854183420146757e+02 0 0 0
3067 123 4 0.0000000000000000e+00 -5.2601664173094576e+01 -4.6208169228452384e+01 -1.5352094740214733e+02 0 0 0
4463 179 3 0.0000000000000000e+00 -4.1318372613270881e+01 -4.9402425337000324e+01 -1.6577857872430960e+02 0 0 0
3066 123 4 0.0000000000000000e+00 -4.9761934266074555e+01 -5.5109809337322602e+01 -1.5791439549219137e+02 0 0 0
4464 179 4 0.0000000000000000e+00 -3.5790418016385246e+01 -4.9620914714316982e+01 -1.5734120876378060e+02 0 0 0
2005 81 2 0.0000000000000000e+00 -4.9380881697347810e+01 -3.6352526545880394e+01 -1.5478332198499999e+02 0 0 0
1174 47 2 0.0000000000000000e+00 -3.0559136000373250e+01 -3.4863042448730269e+01 -1.5836047676178595e+02 0 0 0
4453 179 4 0.0000000000000000e+00 -1.8710109340149724e+01 -4.1907253437861023e+01 -1.5441491970134217e+02 0 0 0
4454 179 4 0.0000000000000000e+00 -1.8525515359589921e+01 -4.3009159176867072e+01 -1.6495083435487891e+02 0 0 0
583 24 2 0.0000000000000000e+00 -9.9609599528744450e+00 -3.9323728386352599e+01 -1.5751748943561492e+02 0 0 0
3071 123 4 0.0000000000000000e+00 -7.9990167549035277e+01 -2.2033617105636740e+01 -1.5894016219251563e+02 0 0 0
3070 123 4 0.0000000000000000e+00 -7.2623471769916264e+01 -2.6859767344140518e+01 -1.5435136464001852e+02 0 0 0
4478 180 4 0.0000000000000000e+00 -7.1221226132142647e+01 -2.7373209322940575e+01 -1.6396493935374244e+02 0 0 0
4477 180 4 0.0000000000000000e+00 -6.1910964648883230e+01 -2.5264223524199750e+01 -1.6008470405224213e+02 0 0 0
2006 81 2 0.0000000000000000e+00 -5.3339115469625540e+01 -3.0833843570420569e+01 -1.6261554179575546e+02 0 0 0
2007 81 1 0.0000000000000000e+00 -4.8030004375569568e+01 -2.2334517928406243e+01 -1.6107959496648343e+02 0 0 0
4327 174 4 0.0000000000000000e+00 -2.3498894143010276e+01 -2.4488414074476811e+01 -1.6498784738246962e+02 0 0 0
580 24 2 0.0000000000000000e+00 -1.6571616412056535e+01 -2.1246584293420941e+01 -1.5386517489528018e+02 0 0 0
3072 123 4 0.0000000000000000e+00 -8.3634698416312233e+01 -1.2571595477795842e+01 -1.5936123253983948e+02 0 0 0
3179 128 4 0.0000000000000000e+00 -6.7099880136082049e+01 -9.2331258060404195e+00 -1.6010528781912609e+02 0 0 0
4476 180 3 0.0000000000000000e+00 -5.8339511517455392e+01 -1.6521554691937183e+01 -1.5711698514663817e+02 0 0 0
2008 81 2 0.0000000000000000e+00 -4.6604251041213828e+01 -1.2283411306376070e+01 -1.5940037844767218e+02 0 0 0
3189 128 4 0.0000000000000000e+00 -3.7563085137462274e+01 -1.7730266978405279e+01 -1.6261374155087279e+02 0 0 0
3190 128 4 0.0000000000000000e+00 -3.8041362952748784e+01 -1.4468078697404726e+01 -1.5336261956759796e+02 0 0 0
2009 81 2 0.0000000000000000e+00 -3.9701483936587806e+01 -4.9793953963797195e+00 -1.5810936584083615e+02 0 0 0
4328 174 4 0.0000000000000000e+00 -2.7847369781096099e+01 -1.6163964163332238e+01 -1.6126259327190465e+02 0 0 0
579 24 2 0.0000000000000000e+00 -1.7640939700458873e+01 -1.6811803686086694e+01 -1.6332484964239433e+02 0 0 0
4444 178 3 0.0000000000000000e+00 -1.5656929042811056e+01 -4.8189447534839287e+00 -1.5807831222999613e+02 0 0 0
1830 74 2 0.0000000000000000e+00 -1.5997589561441705e+01 -7.7145150044807323e+01 -1.4121833896415285e+02 0 0 0
3063 123 3 0.0000000000000000e+00 -2.6699013699730397e+01 -6.4485258878985974e+01 -1.4973264449643946e+02 0 0 0
2001 81 1 0.0000000000000000e+00 -2.5279689188670680e+01 -5.9491580910177710e+01 -1.4062406852420835e+02 0 0 0
3064 123 4 0.0000000000000000e+00 -3.4953211183314508e+01 -5.9948232686636786e+01 -1.5077762737767918e+02 0 0 0
4451 179 3 0.0000000000000000e+00 -1.8690238549283276e+01 -5.9603222696353527e+01 -1.5093305853107771e+02 0 0 0
3062 123 4 0.0000000000000000e+00 -2.2089917957920321e+01 -6.8707470233089140e+01 -1.4158598200196965e+02 0 0 0
3061 123 4 0.0000000000000000e+00 -1.2157438068828256e+01 -6.5855772904519739e+01 -1.4205034422541814e+02 0 0 0
3065 123 4 0.0000000000000000e+00 -4.3447584416297914e+01 -5.4536053874059021e+01 -1.5042996397685059e+02 0 0 0
2003 81 2 0.0000000000000000e+00 -3.9881799828058313e+01 -4.7758099870922663e+01 -1.4266387732363097e+02 0 0 0
4466 179 4 0.0000000000000000e+00 -2.7485967522369172e+01 -4.5459191736539211e+01 -1.3935674323726130e+02 0 0 0
2002 81 2 0.0000000000000000e+00 -3.3031898729163380e+01 -5.4296813599895998e+01 -1.3924767409685458e+02 0 0 0
4465 179 4 0.0000000000000000e+00 -3.1360292161568172e+01 -4.7365621564237159e+01 -1.4878198584070557e+02 0 0 0
4452 179 4 0.0000000000000000e+00 -2.0014405135402257e+01 -5.0216549506482053e+01 -1.4766453903271585e+02 0 0 0
3060 123 4 0.0000000000000000e+00 -9.9322123103317548e+00 -5.6112116041248385e+01 -1.4430345967096858e+02 0 0 0
3068 123 4 0.0000000000000000e+00 -5.8977232351189819e+01 -3.8760590295342816e+01 -1.4975131114396925e+02 0 0 0
738 30 1 0.0000000000000000e+00 -6.5255920627383958e+01 -3.5798145168021243e+01 -1.3829251176317246e+02 0 0 0
2004 81 2 0.0000000000000000e+00 -4.2725451066127725e+01 -4.2492669173410462e+01 -1.5011401567918145e+02 0 0 0
742 30 2 0.0000000000000000e+00 -4.9074099977645716e+01 -3.1943062204646630e+01 -1.4147280827368627e+02 0 0 0
741 30 2 0.0000000000000000e+00 -4.8178523068455789e+01 -4.2046540560945139e+01 -1.3991307927253109e+02 0 0 0
1172 47 2 0.0000000000000000e+00 -3.4929339154203689e+01 -3.5508486043711791e+01 -1.4060461572308120e+02 0 0 0
582 24 1 0.0000000000000000e+00 -1.2363040478061782e+01 -3.7774214008560115e+01 -1.4796423978908112e+02 0 0 0
4200 168 3 0.0000000000000000e+00 -1.8292368698367227e+01 -3.8080243819195665e+01 -1.3892617290671993e+02 0 0 0
3069 123 3 0.0000000000000000e+00 -6.4625047370476082e+01 -3.0546943037259489e+01 -1.4847864757883420e+02 0 0 0
743 30 2 0.0000000000000000e+00 -4.7345817696252347e+01 -2.2696297203953808e+01 -1.4396630190562050e+02 0 0 0
1173 47 2 0.0000000000000000e+00 -3.1401939981801540e+01 -3.1244820902076725e+01 -1.4920383160632835e+02 0 0 0
581 24 2 0.0000000000000000e+00 -1.8699714156070470e+01 -3.0116905758930862e+01 -1.4909615286641980e+02 0 0 0
587 24 2 0.0000000000000000e+00 -1.4871365365330654e+01 -2.7781185458741597e+01 -1.3935959937923485e+02 0 0 0
3668 147 4 0.0000000000000000e+00 -2.0295815334960849e+01 -1.9725131303983126e+01 -1.4343252530159054e+02 0 0 0
3667 147 4 0.0000000000000000e+00 -1.0378371475111141e+01 -1.9513246112723508e+01 -1.4353249726757693e+02 0 0 0
2015 81 2 0.0000000000000000e+00 -6.7601996762206397e+01 -1.7502666250221111e+01 -1.4943700305360102e+02 0 0 0
2014 81 2 0.0000000000000000e+00 -7.2362372317322539e+01 -9.5237086332321663e+00 -1.4503021251570789e+02 0 0 0
745 30 2 0.0000000000000000e+00 -5.7890779883231467e+01 -7.0580138994249690e+00 -1.5004653234249531e+02 0 0 0
744 30 1 0.0000000000000000e+00 -5.3103658972795827e+01 -1.4979302648120409e+01 -1.4708664312625046e+02 0 0 0
2016 81 2 0.0000000000000000e+00 -6.2412563249714317e+01 -1.4313732970276506e+01 -1.4146841809244904e+02 0 0 0
4329 174 4 0.0000000000000000e+00 -2.8765723591420770e+01 -1.2531686335583876e+01 -1.5138065529496257e+02 0 0 0
3191 128 4 0.0000000000000000e+00 -3.4893687690690328e+01 -1.3838106697521518e+01 -1.4391511918478150e+02 0 0 0
4445 178 4 0.0000000000000000e+00 -1.1827464436386316e+01 -1.0334421200316640e+01 -1.5070653595717087e+02 0 0 0
4446 178 4 0.0000000000000000e+00 -1.3219855892122011e+01 -8.4892395505872962e+00 -1.4115769369974160e+02 0 0 0
1833 74 2 0.0000000000000000e+00 -3.7945694008856307e+01 -7.4416253124710281e+01 -1.2661246409440052e+02 0 0 0
1832 74 1 0.0000000000000000e+00 -3.0347347066154708e+01 -8.0875127181947121e+01 -1.2813439488688351e+02 0 0 0
1831 74 2 0.0000000000000000e+00 -2.2764529754488947e+01 -8.1096843204272858e+01 -1.3438887696975129e+02 0 0 0
4193 168 4 0.0000000000000000e+00 -5.4784235752510170e+01 -5.9003418667869546e+01 -1.2883792538216883e+02 0 0 0
4194 168 3 0.0000000000000000e+00 -4.6239033824780833e+01 -6.1471201088348444e+01 -1.3428583621016165e+02 0 0 0
4195 168 4 0.0000000000000000e+00 -3.6933121055101665e+01 -6.5336555755373737e+01 -1.3626325489235350e+02 0 0 0
4196 168 4 0.0000000000000000e+00 -2.8838076272024960e+01 -6.8506944376466308e+01 -1.3133443540690709e+02 0 0 0
4197 168 4 0.0000000000000000e+00 -1.9058399517407015e+01 -6.4406765958387140e+01 -1.3086801524234858e+02 0 0 0
740 30 2 0.0000000000000000e+00 -5.2556677432310664e+01 -5.0503770013104344e+01 -1.3648945889255370e+02 0 0 0
2022 81 2 0.0000000000000000e+00 -5.4469611192791362e+01 -4.6148136409581255e+01 -1.2435697669458948e+02 0 0 0
1169 47 1 0.0000000000000000e+00 -3.9948406417858365e+01 -5.8775008028493772e+01 -1.2533925640806689e+02 0 0 0
1170 47 2 0.0000000000000000e+00 -3.7907164054095688e+01 -4.9656589530129018e+01 -1.2913548367897954e+02 0 0 0
4467 179 4 0.0000000000000000e+00 -2.7932863778375140e+01 -4.9924777912293067e+01 -1.3025101842690887e+02 0 0 0
4199 168 4 0.0000000000000000e+00 -1.2746778305445938e+01 -4.6496546105242487e+01 -1.3636673870568100e+02 0 0 0
4198 168 4 0.0000000000000000e+00 -1.6421361527544168e+01 -5.5684768070318611e+01 -1.3619719805781358e+02 0 0 0
3166 127 4 0.0000000000000000e+00 -6.5867222183135581e+01 -3.1611796300002190e+01 -1.2540116617133150e+02 0 0 0
739 30 2 0.0000000000000000e+00 -5.9205845174428951e+01 -4.3084015656326706e+01 -1.3580711818966364e+02 0 0 0
3167 127 4 0.0000000000000000e+00 -5.6869894550503751e+01 -3.4016608739446966e+01 -1.2906559565105042e+02 0 0 0
2023 81 2 0.0000000000000000e+00 -4.5973114782041428e+01 -4.4241808077443366e+01 -1.2909903743214036e+02 0 0 0
2024 81 2 0.0000000000000000e+00 -4.3014913273497349e+01 -3.4404922330048379e+01 -1.3176227376291155e+02 0 0 0
1171 47 2 0.0000000000000000e+00 -3.3441097192329082e+01 -4.1213797173330022e+01 -1.3240575013345725e+02 0 0 0
2243 90 2 0.0000000000000000e+00 -1.0743209743251709e+01 -3.4483489595794296e+01 -1.3083842891252095e+02 0 0 0
737 30 2 0.0000000000000000e+00 -7.0831527569014000e+01 -2.9766928743631595e+01 -1.3319728860756624e+02 0 0 0
736 30 2 0.0000000000000000e+00 -7.5426305569669424e+01 -2.0972766248476386e+01 -1.3181735275162490e+02 0 0 0
3168 127 4 0.0000000000000000e+00 -5.3318557304247705e+01 -2.5732982432507228e+01 -1.3386870292920497e+02 0 0 0
2025 81 1 0.0000000000000000e+00 -3.9848423496791561e+01 -2.6024439064390279e+01 -1.3489020964025761e+02 0 0 0
3169 127 3 0.0000000000000000e+00 -4.6356696291413236e+01 -1.9827304564113962e+01 -1.2979211932917062e+02 0 0 0
589 24 2 0.0000000000000000e+00 -3.2183495821841632e+01 -3.1232445072511421e+01 -1.3068404744288631e+02 0 0 0
3669 147 3 0.0000000000000000e+00 -2.6599388138718446e+01 -1.8712775251459362e+01 -1.3551767734631528e+02 0 0 0
3193 128 4 0.0000000000000000e+00 -3.6384966500198679e+01 -1.9538333177918329e+01 -1.2671295505034594e+02 0 0 0
3670 147 4 0.0000000000000000e+00 -2.2842271837131044e+01 -1.9583092929179028e+01 -1.2604738480718930e+02 0 0 0
588 24 1 0.0000000000000000e+00 -2.3210713985426882e+01 -2.9676728488042876e+01 -1.3444237448213067e+02 0 0 0
2242 90 2 0.0000000000000000e+00 -1.0688243063485785e+01 -2.4080255404369822e+01 -1.3166300627094887e+02 0 0 0
2068 83 2 0.0000000000000000e+00 -1.0537565888219393e+02 -1.3757090369892273e+01 -1.2551861798585045e+02 0 0 0
2067 83 2 0.0000000000000000e+00 -9.9553274314083566e+01 -6.3565448308574863e+00 -1.2948506822358641e+02 0 0 0
735 30 2 0.0000000000000000e+00 -7.7836537309590867e+01 -1.0819775310401628e+01 -1.3277253396123007e+02 0 0 0
2017 81 2 0.0000000000000000e+00 -5.7763285172550681e+01 -1.7508733706821506e+01 -1.3260128877279121e+02 0 0 0
3903 157 4 0.0000000000000000e+00 -5.7465178540319812e+01 -5.2065168833043431e+00 -1.2750365212010118e+02 0 0 0
3170 127 4 0.0000000000000000e+00 -4.7158482960343328e+01 -1.0243833411324113e+01 -1.2648843548322984e+02 0 0 0
3192 128 4 0.0000000000000000e+00 -3.7172335373740083e+01 -1.1927469215285431e+01 -1.3373666918404268e+02 0 0 0
2240 90 2 0.0000000000000000e+00 -2.0698209059069256e+01 -9.0258935714095259e+00 -1.2638547670701556e+02 0 0 0
2241 90 2 0.0000000000000000e+00 -1.3308834755927679e+01 -1.6055536189306462e+01 -1.2643037689987224e+02 0 0 0
4388 176 3 0.0000000000000000e+00 -3.1052458572398773e+01 -7.7562047437424440e+01 -1.1711575069775608e+02 0 0 0
2166 87 2 0.0000000000000000e+00 -1.5747081955341702e+01 -7.8188533880783098e+01 -1.1374728824939261e+02 0 0 0
4192 168 4 0.0000000000000000e+00 -5.5635749649464799e+01 -6.0250526284688370e+01 -1.1887643742547461e+02 0 0 0
1834 74 2 0.0000000000000000e+00 -4.3894766464839918e+01 -7.1778367482036458e+01 -1.1845149360841175e+02 0 0 0
1168 47 2 0.0000000000000000e+00 -3.4716930314952009e+01 -6.5604265710821693e+01 -1.1922993206466144e+02 0 0 0
4389 176 4 0.0000000000000000e+00 -2.4493038829312454e+01 -7.1053192222057078e+01 -1.2089622927386839e+02 0 0 0
4390 176 4 0.0000000000000000e+00 -2.1074253121444009e+01 -6.1963857425838555e+01 -1.1928802605027326e+02 0 0 0
4470 179 4 0.0000000000000000e+00 -9.2335627461523782e+00 -6.3795140084452690e+01 -1.1520347256196183e+02 0 0 0
2021 81 2 0.0000000000000000e+00 -6.0896171364797198e+01 -4.6748244131195094e+01 -1.1660025869669498e+02 0 0 0
592 24 2 0.0000000000000000e+00 -4.6895030074657683e+01 -4.8397344731302987e+01 -1.1392109428427956e+02 0 0 0
4391 176 4 0.0000000000000000e+00 -2.8237160164199263e+01 -5.5403893701118982e+01 -1.1724307363710672e+02 0 0 0
4392 176 4 0.0000000000000000e+00 -3.1589839028805848e+01 -4.8238011136511894e+01 -1.1175797027982287e+02 0 0 0
4468 179 4 0.0000000000000000e+00 -2.0037421966830962e+01 -5.0446285664321522e+01 -1.2393128559526650e+02 0 0 0
4469 179 3 0.0000000000000000e+00 -1.2338832837958870e+01 -5.6881761777691892e+01 -1.2200927446200730e+02 0 0 0
59 3 2 0.0000000000000000e+00 -1.4974463728489185e+01 -4.6344028097913728e+01 -1.1183020056301127e+02 0 0 0
2074 83 2 0.0000000000000000e+00 -9.8408490465594156e+01 -3.2027576318990057e+01 -1.1456792530364835e+02 0 0 0
2020 81 2 0.0000000000000000e+00 -5.8197723778004352e+01 -3.7509097856089333e+01 -1.1362755027453412e+02 0 0 0
591 24 2 0.0000000000000000e+00 -4.0031837017200651e+01 -4.1599267348345563e+01 -1.1745023781336994e+02 0 0 0
1149 46 2 0.0000000000000000e+00 -4.6111809675857117e+01 -3.7520023163212315e+01 -1.1033454186973314e+02 0 0 0
590 24 2 0.0000000000000000e+00 -3.5350357345106033e+01 -3.4220614670433427e+01 -1.2230766176667595e+02 0 0 0
2069 83 1 0.0000000000000000e+00 -1.1194548226690119e+02 -1.8687073353932881e+01 -1.1900400574215521e+02 0 0 0
2075 83 1 0.0000000000000000e+00 -9.1624386506065932e+01 -2.9865206064567975e+01 -1.2123391650415753e+02 0 0 0
3164 127 4 0.0000000000000000e+00 -8.2546122051320154e+01 -2.8191515773951107e+01 -1.1412117888101452e+02 0 0 0
3165 127 4 0.0000000000000000e+00 -7.4495875191534864e+01 -2.8878456174075776e+01 -1.2045023136532690e+02 0 0 0
2019 81 1 0.0000000000000000e+00 -5.7668184437906874e+01 -2.7873568890176379e+01 -1.1507840206852508e+02 0 0 0
2018 81 2 0.0000000000000000e+00 -5.8053955707454001e+01 -2.3060219526026227e+01 -1.2421442106266575e+02 0 0 0
3901 157 3 0.0000000000000000e+00 -5.1640752816685037e+01 -1.8636646812072719e+01 -1.1459760344052533e+02 0 0 0
3194 128 3 0.0000000000000000e+00 -3.5852739703937303e+01 -1.8075220395175368e+01 -1.1662258141557865e+02 0 0 0
3672 147 4 0.0000000000000000e+00 -1.4457051765731466e+01 -3.0797860036001531e+01 -1.1208405405643245e+02 0 0 0
3671 147 4 0.0000000000000000e+00 -1.7303724294998652e+01 -2.5069210311162660e+01 -1.1958852851325314e+02 0 0 0
1146 46 2 0.0000000000000000e+00 -2.3039592169918460e+01 -2.4131604520155225e+01 -1.1140652715000664e+02 0 0 0
2891 116 4 0.0000000000000000e+00 -1.0161717906619809e+02 -1.3564192064754669e+01 -1.1524168545001262e+02 0 0 0
83 4 2 0.0000000000000000e+00 -6.6150286906603782e+01 -1.6812369158565946e+01 -1.1245014731779796e+02 0 0 0
3902 157 4 0.0000000000000000e+00 -5.4001052005756449e+01 -9.8699127015258199e+00 -1.1898971997850785e+02 0 0 0
3171 127 4 0.0000000000000000e+00 -4.2235005504047471e+01 -4.7556504089210865e+00 -1.2011941129824507e+02 0 0 0
2376 96 1 0.0000000000000000e+00 -2.5702421190332270e+01 -1.2361019720774555e+01 -1.1788393882297926e+02 0 0 0
2377 96 2 0.0000000000000000e+00 -3.1930986208590333e+01 -7.0186764598223181e+00 -1.1159485623409262e+02 0 0 0
1144 46 1 0.0000000000000000e+00 -1.5140320176808283e+01 -6.1051193339278509e+00 -1.1315259488505653e+02 0 0 0
1145 46 2 0.0000000000000000e+00 -1.7022023050429638e+01 -1.6103842748732713e+01 -1.1267257756789820e+02 0 0 0
1850 74 1 0.0000000000000000e+00 -3.9684512706186062e+01 -1.2257590935564122e+02 -9.6888982418099218e+01 0 0 0
2701 109 3 0.0000000000000000e+00 -4.2133246370125441e+01 -1.1749816998673910e+02 -1.0588691472779615e+02 0 0 0
1849 74 2 0.0000000000000000e+00 -3.2271010541468179e+01 -1.1857872278154180e+02 -1.0165245758981206e+02 0 0 0
2702 109 4 0.0000000000000000e+00 -4.2279964017865773e+01 -1.1253669511864157e+02 -9.6985398185736756e+01 0 0 0
1848 74 2 0.0000000000000000e+00 -2.4782219976965255e+01 -1.1147581686228784e+02 -1.0205169440142870e+02 0 0 0
1847 74 2 0.0000000000000000e+00 -2.7005018616757845e+01 -1.0307240324331562e+02 -9.7281120643492102e+01 0 0 0
4876 196 3 0.0000000000000000e+00 -1.9521834444551502e+01 -9.4854339065288855e+01 -9.9338397117736264e+01 0 0 0
2168 87 2 0.0000000000000000e+00 -1.0858268212880217e+01 -9.4007793230478299e+01 -1.0639158651772760e+02 0 0 0
4387 176 4 0.0000000000000000e+00 -2.8208138056861731e+01 -8.2304611869665578e+01 -1.0849732377663629e+02 0 0 0
596 24 2 0.0000000000000000e+00 -3.2722928925079664e+01 -7.6495141073430133e+01 -9.9639422333357814e+01 0 0 0
4386 176 4 0.0000000000000000e+00 -2.1157362903735251e+01 -7.6575555561357731e+01 -1.0371711887414129e+02 0 0 0
2167 87 2 0.0000000000000000e+00 -1.7073591637861451e+01 -8.5794083827583520e+01 -1.0724646855592771e+02 0 0 0
598 24 2 0.0000000000000000e+00 -1.6343347506491241e+01 -8.4460679349611823e+01 -9.6604975567705992e+01 0 0 0
2900 116 3 0.0000000000000000e+00 -8.4581244606571147e+01 -6.4421528559864257e+01 -9.9581560693803112e+01 0 0 0
4191 168 4 0.0000000000000000e+00 -6.0073115217918399e+01 -6.0742702540982876e+01 -1.0968545878228606e+02 0 0 0
1836 74 2 0.0000000000000000e+00 -5.1706166501454781e+01 -6.3987842714872734e+01 -1.0117904450018113e+02 0 0 0
1835 74 2 0.0000000000000000e+00 -4.5935471581570070e+01 -6.8404449520543892e+01 -1.0865378442403966e+02 0 0 0
595 24 2 0.0000000000000000e+00 -3.7780830417733100e+01 -6.7846794255430964e+01 -1.0190466418015464e+02 0 0 0
1167 47 2 0.0000000000000000e+00 -3.0618780492136978e+01 -6.6604448924038110e+01 -1.0968114511402733e+02 0 0 0
1166 47 2 0.0000000000000000e+00 -2.5109847192849024e+01 -6.4208496379722874e+01 -1.0143062419718021e+02 0 0 0
4472 179 4 0.0000000000000000e+00 -1.2514918062735720e+01 -6.0443683265725554e+01 -1.0580836076272774e+02 0 0 0
1976 80 1 0.0000000000000000e+00 -9.5143043612807546e+01 -5.8866728782287055e+01 -1.0039453584855825e+02 0 0 0
1977 80 2 0.0000000000000000e+00 -9.7458846531033927e+01 -4.9257579947802832e+01 -9.8235972187315568e+01 0 0 0
4190 168 4 0.0000000000000000e+00 -6.1470524545799243e+01 -5.1439688237046319e+01 -1.0551117130267289e+02 0 0 0
1837 74 2 0.0000000000000000e+00 -5.5399775540889657e+01 -5.5054128016451934e+01 -9.7813748740353844e+01 0 0 0
4189 168 4 0.0000000000000000e+00 -6.3121263327803270e+01 -4.5303155869073613e+01 -9.7673212173538545e+01 0 0 0
594 24 1 0.0000000000000000e+00 -4.1826891145682922e+01 -5.8318708832187923e+01 -1.0156165286945487e+02 0 0 0
593 24 2 0.0000000000000000e+00 -4.9197865334872454e+01 -5.2394417118329073e+01 -1.0523156500794749e+02 0 0 0
4474 179 4 0.0000000000000000e+00 -2.6800772373810329e+01 -4.7847538584267582e+01 -1.0131957283154892e+02 0 0 0
4473 179 4 0.0000000000000000e+00 -2.0862064720975628e+01 -5.5264738450198514e+01 -1.0283052615387952e+02 0 0 0
2073 83 2 0.0000000000000000e+00 -1.0401336654903760e+02 -3.5374751908409330e+01 -1.0721817858105655e+02 0 0 0
3163 127 3 0.0000000000000000e+00 -8.7247826904747143e+01 -3.4139980130160737e+01 -1.0724850178922594e+02 0 0 0
3162 127 4 0.0000000000000000e+00 -8.2352872323324561e+01 -4.2815168973140842e+01 -1.0846497752924002e+02 0 0 0
3161 127 4 0.0000000000000000e+00 -8.3490726284160900e+01 -4.1789697020224139e+01 -9.8558763280970226e+01 0 0 0
80 4 2 0.0000000000000000e+00 -7.3368757255502373e+01 -3.6386396995936757e+01 -1.0261006265446262e+02 0 0 0
1150 46 1 0.0000000000000000e+00 -5.3838558891317490e+01 -4.3852126226720110e+01 -1.0686415537516159e+02 0 0 0
79 4 2 0.0000000000000000e+00 -6.3581394979821660e+01 -3.4086865256212157e+01 -1.0226762384477830e+02 0 0 0
78 4 2 0.0000000000000000e+00 -5.4150378284558023e+01 -3.3261775176449532e+01 -9.8702381405083671e+01 0 0 0
4394 176 3 0.0000000000000000e+00 -4.4386607345297300e+01 -4.3899461819409176e+01 -1.0127940882742313e+02 0 0 0
77 4 2 0.0000000000000000e+00 -4.4322340211760789e+01 -3.3282739978699446e+01 -9.8604479377983509e+01 0 0 0
4393 176 4 0.0000000000000000e+00 -3.6343148342219237e+01 -4.0905522006653278e+01 -1.0633703457924582e+02 0 0 0
4475 179 3 0.0000000000000000e+00 -3.0839102440124506e+01 -3.9452953097952523e+01 -9.7359855067386306e+01 0 0 0
58 3 2 0.0000000000000000e+00 -1.7214026937839900e+01 -4.3382806469890099e+01 -1.0236958212346207e+02 0 0 0
2072 83 2 0.0000000000000000e+00 -1.1056302890336228e+02 -2.7920800636059845e+01 -1.0980323948121945e+02 0 0 0
2071 83 2 0.0000000000000000e+00 -1.1730668079785643e+02 -2.1790920770193623e+01 -1.0601652431672653e+02 0 0 0
2893 116 4 0.0000000000000000e+00 -9.9239965552522889e+01 -2.6387554826149792e+01 -1.0053154044652112e+02 0 0 0
2892 116 4 0.0000000000000000e+00 -1.0028733138142327e+02 -1.9151465792601162e+01 -1.0714401313568759e+02 0 0 0
701 29 1 0.0000000000000000e+00 -1.0747765412742820e+02 -2.1088935552302512e+01 -9.7326504123147274e+01 0 0 0
81 4 2 0.0000000000000000e+00 -7.7753692998234655e+01 -2.7324749244059959e+01 -1.0494339150442498e+02 0 0 0
82 4 1 0.0000000000000000e+00 -7.5323418483289743e+01 -1.8387945570129204e+01 -1.0854825243078541e+02 0 0 0
1982 80 1 0.0000000000000000e+00 -7.0057576878811332e+01 -2.3330317352225308e+01 -9.8263931255438891e+01 0 0 0
3275 131 3 0.0000000000000000e+00 -5.9110586557977953e+01 -2.3559289899922344e+01 -9.9170554127724785e+01 0 0 0
1148 46 2 0.0000000000000000e+00 -4.2337352516013475e+01 -2.8044464829389749e+01 -1.0958689589508667e+02 0 0 0
1147 46 2 0.0000000000000000e+00 -3.2937227201098665e+01 -2.5290867649013684e+01 -1.0941561772981404e+02 0 0 0
76 4 1 0.0000000000000000e+00 -3.4737791303696717e+01 -3.0110964431597520e+01 -9.8518827955421287e+01 0 0 0
4887 196 4 0.0000000000000000e+00 -2.5344975263200880e+01 -2.3782222844611979e+01 -1.0007781769225289e+02 0 0 0
3095 124 4 0.0000000000000000e+00 -1.4288293080143706e+01 -2.5920607061085700e+01 -1.0279628337128194e+02 0 0 0
2070 83 2 0.0000000000000000e+00 -1.1039899647337074e+02 -1.5117404741199802e+01 -1.0919455793622544e+02 0 0 0
4176 168 3 0.0000000000000000e+00 -1.1385175534628696e+02 -1.2229551222914560e+01 -9.9225984877572415e+01 0 0 0
703 29 2 0.0000000000000000e+00 -9.7225554813758748e+01 -6.7269098445705122e+00 -1.0097369729000805e+02 0 0 0
1400 56 1 0.0000000000000000e+00 -1.0760523774491199e+02 -4.2967433008783784e+00 -1.0491330367486739e+02 0 0 0
4832 194 3 0.0000000000000000e+00 -6.7425429285732633e+01 -1.3802214335526111e+01 -1.0117666256294144e+02 0 0 0
84 4 2 0.0000000000000000e+00 -5.7998886755750753e+01 -1.7660276962346892e+01 -1.0660157277372639e+02 0 0 0
4831 194 4 0.0000000000000000e+00 -6.2672362024232328e+01 -6.3722895814790315e+00 -1.0583456837902106e+02 0 0 0
85 4 2 0.0000000000000000e+00 -5.0922629720187160e+01 -1.1151299201325582e+01 -1.0735654565817597e+02 0 0 0
3195 128 4 0.0000000000000000e+00 -3.8807571012060365e+01 -1.4396075652043550e+01 -1.0712766699703666e+02 0 0 0
86 4 2 0.0000000000000000e+00 -4.7753123710238022e+01 -4.5781795327397230e+00 -1.0014420491334930e+02 0 0 0
3196 128 4 0.0000000000000000e+00 -3.3853077890315852e+01 -1.2918529969549361e+01 -9.8531698581978944e+01 0 0 0
4888 196 3 0.0000000000000000e+00 -2.1066272115360483e+01 -1.4451175639002216e+01 -1.0222597940714077e+02 0 0 0
2269 91 1 0.0000000000000000e+00 -1.1080989833111682e+01 -1.4289376416732427e+01 -9.6535028991810108e+01 0 0 0
2270 91 2 0.0000000000000000e+00 -9.3563552990008851e+00 -1.6669496685655293e+01 -1.0609236267603714e+02 0 0 0
4889 196 4 0.0000000000000000e+00 -2.1594278320382397e+01 -4.4440391651842202e+00 -1.0243028327460031e+02 0 0 0
2703 109 4 0.0000000000000000e+00 -4.0297771556890275e+01 -1.0472436198140689e+02 -9.0271178847721146e+01 0 0 0
1845 74 2 0.0000000000000000e+00 -3.4389181123393641e+01 -9.0687780377181852e+01 -8.4780665159079319e+01 0 0 0
1846 74 2 0.0000000000000000e+00 -3.1865428391941606e+01 -9.6112675394427683e+01 -9.2246758092081976e+01 0 0 0