LAMMPS data file via write_data, version 5 Jun 2019, timestep = 320000000

5000 atoms
4 atom types
5259 bonds
3 bond types
4600 angles
2 angle types

-2.5000000000000000e+02 2.5000000000000000e+02 xlo xhi
-2.5000000000000000e+02 2.5000000000000000e+02 ylo yhi
-2.5000000000000000e+02 2.5000000000000000e+02 zlo zhi

Masses

1 1000
2 1000
3 1000
4 1000

Pair Coeffs # lj/cut

1 0.3 10
2 0.3 10
3 0.3 10
4 0.3 10

Bond Coeffs # harmonic

1 3 10
2 3 10
3 1.8 11.22

Angle Coeffs # cosine

1 2
2 2

Atoms # full

3192 128 4 0.0000000000000000e+00 -4.0462732695875914e+01 -2.4755463037822839e+01 -1.7823135056115126e+02 0 0 0
3191 128 4 0.0000000000000000e+00 -3.1913399580426731e+01 -1.9238434990816412e+01 -1.7896551838596224e+02 0 0 0
4376 176 3 0.0000000000000000e+00 -8.9899636191881864e+00 -5.5811443493313085e+01 -1.7039464556049236e+02 0 0 0
2126 86 1 0.0000000000000000e+00 -2.1111827139133016e+01 -4.7186859692391323e+01 -1.6919655687740615e+02 0 0 0
4427 178 4 0.0000000000000000e+00 -1.7983750894722363e+01 -3.3705891293183676e+01 -1.7392147371303687e+02 0 0 0
4426 178 3 0.0000000000000000e+00 -1.2055351148767665e+01 -4.1090943426743095e+01 -1.7039200994599005e+02 0 0 0
3193 128 4 0.0000000000000000e+00 -4.3850295017488037e+01 -2.6181842807247886e+01 -1.6892564151309313e+02 0 0 0
4429 178 4 0.0000000000000000e+00 -3.0627058165719184e+01 -2.0524108979039116e+01 -1.6955696006055427e+02 0 0 0
4428 178 4 0.0000000000000000e+00 -2.1859453421583332e+01 -2.5407709220586984e+01 -1.6947826772067688e+02 0 0 0
3190 128 4 0.0000000000000000e+00 -2.6759035161813081e+01 -1.0549008705743919e+01 -1.7631673594686106e+02 0 0 0
4430 178 4 0.0000000000000000e+00 -2.6617531232771807e+01 -1.2170709828245107e+01 -1.6623985423422434e+02 0 0 0
1150 46 1 0.0000000000000000e+00 -6.1055374377038119e+00 -5.5731034363549419e+01 -1.5874746043250673e+02 0 0 0
3067 123 4 0.0000000000000000e+00 -6.9033164984565145e+00 -4.8958574143123336e+01 -1.4961089242432465e+02 0 0 0
3068 123 4 0.0000000000000000e+00 -7.5978795513533781e-01 -5.7314356601352010e+01 -1.4978013175341889e+02 0 0 0
2127 86 2 0.0000000000000000e+00 -2.0684852964974336e+01 -4.0343818925700660e+01 -1.6209762715788344e+02 0 0 0
3066 123 4 0.0000000000000000e+00 -1.1412835008613234e+01 -4.0196352496696477e+01 -1.5063213265496154e+02 0 0 0
3195 128 4 0.0000000000000000e+00 -5.9786569060649633e+01 -2.3293830802738057e+01 -1.5636092598703340e+02 0 0 0
3194 128 3 0.0000000000000000e+00 -5.1475085184822696e+01 -2.5196130051015540e+01 -1.6198165702557708e+02 0 0 0
2013 81 1 0.0000000000000000e+00 -4.5201981657095004e+01 -3.2428303631622143e+01 -1.5662639305095780e+02 0 0 0
2014 81 2 0.0000000000000000e+00 -3.9181598795941383e+01 -2.4145624368434532e+01 -1.5723578419350824e+02 0 0 0
2015 81 2 0.0000000000000000e+00 -3.2581067551284072e+01 -2.0706785195792520e+01 -1.4948031738894139e+02 0 0 0
2128 86 2 0.0000000000000000e+00 -1.2920071496917492e+01 -3.3138313631783468e+01 -1.6226649781357722e+02 0 0 0
2129 86 2 0.0000000000000000e+00 -1.2039118598056207e+01 -2.3894888908487388e+01 -1.5863798203180073e+02 0 0 0
2130 86 2 0.0000000000000000e+00 -1.4235657515425563e+01 -1.4066915655125690e+01 -1.5812383279228681e+02 0 0 0
4469 179 3 0.0000000000000000e+00 -5.6490063696999373e+00 -1.8674225397112760e+01 -1.5162759443548592e+02 0 0 0
4470 179 4 0.0000000000000000e+00 -2.4708685613059371e+00 -1.2657180056315326e+01 -1.5930244164885832e+02 0 0 0
577 24 2 0.0000000000000000e+00 -1.0783692548259765e+00 -9.3779930146454518e+01 -1.3913206228190842e+02 0 0 0
4382 176 3 0.0000000000000000e+00 -1.2008969568389452e+00 -7.8246201405259868e+01 -1.3891226602633682e+02 0 0 0
2246 90 2 0.0000000000000000e+00 -1.6799641701410348e+01 -7.3330185586010217e+01 -1.3616067613347727e+02 0 0 0
2245 90 2 0.0000000000000000e+00 -2.3682508076414326e+01 -6.5551388401207788e+01 -1.3645879662561484e+02 0 0 0
3071 123 4 0.0000000000000000e+00 -7.0224696122749348e+00 -6.1252527568021954e+01 -1.4101082822843546e+02 0 0 0
3070 123 4 0.0000000000000000e+00 -2.1497444792443270e+00 -6.7813442709178432e+01 -1.4692158346939431e+02 0 0 0
3072 123 4 0.0000000000000000e+00 -8.6360038940994366e-01 -5.4499434062510709e+01 -1.3638505863492540e+02 0 0 0
2068 83 2 0.0000000000000000e+00 -6.8471244317389917e+01 -3.7917427755811936e+01 -1.4044787065928580e+02 0 0 0
2067 83 2 0.0000000000000000e+00 -6.1104683282340872e+01 -4.0233345711851719e+01 -1.4662651160427328e+02 0 0 0
2066 83 2 0.0000000000000000e+00 -5.5995980645354344e+01 -4.4569386931338677e+01 -1.3895799288490213e+02 0 0 0
4826 194 3 0.0000000000000000e+00 -2.6576771801229672e+01 -3.3767573317399105e+01 -1.4646704687461676e+02 0 0 0
1144 46 1 0.0000000000000000e+00 -2.1622402241686380e+01 -4.2006013455580707e+01 -1.4049123817446198e+02 0 0 0
1145 46 2 0.0000000000000000e+00 -1.1066656059797735e+01 -4.3495547362900780e+01 -1.3971111637956605e+02 0 0 0
1146 46 2 0.0000000000000000e+00 -1.3004940488761170e+00 -4.0771914024373906e+01 -1.3923813323077621e+02 0 0 0
4499 180 4 0.0000000000000000e+00 -8.8950447565251139e+01 -2.3350272688659217e+01 -1.3753395483090483e+02 0 0 0
2012 81 2 0.0000000000000000e+00 -4.7211095982191324e+01 -3.2618522404980126e+01 -1.4686718455748579e+02 0 0 0
2011 81 2 0.0000000000000000e+00 -5.5419111566718676e+01 -3.0907600617835900e+01 -1.4099664024954981e+02 0 0 0
4828 194 4 0.0000000000000000e+00 -4.3429352419257562e+01 -2.6661595113625030e+01 -1.3902086237707169e+02 0 0 0
4827 194 4 0.0000000000000000e+00 -3.5335418966180413e+01 -2.9660185221526195e+01 -1.4420942900427178e+02 0 0 0
3064 123 4 0.0000000000000000e+00 -2.0489202951983643e+01 -2.8074836843410591e+01 -1.3961444622732859e+02 0 0 0
3065 123 4 0.0000000000000000e+00 -1.2782462178576777e+01 -3.3187238536880919e+01 -1.4333433556847962e+02 0 0 0
4468 179 4 0.0000000000000000e+00 -1.0087851536745841e+01 -2.0424044066106323e+01 -1.4281961119743343e+02 0 0 0
3196 128 4 0.0000000000000000e+00 -5.7418972563790227e+01 -1.9382429177567186e+01 -1.4679224573548328e+02 0 0 0
3197 128 4 0.0000000000000000e+00 -5.1958374710028309e+01 -1.2473064559262127e+01 -1.4204904487068080e+02 0 0 0
3198 128 4 0.0000000000000000e+00 -4.2957656827482325e+01 -8.4750018847594255e+00 -1.4295416871543566e+02 0 0 0
2016 81 2 0.0000000000000000e+00 -3.2234803441325873e+01 -1.0833228672137384e+01 -1.4628170990219914e+02 0 0 0
2017 81 2 0.0000000000000000e+00 -2.2595146141810140e+01 -8.0454612276330160e+00 -1.4604932187983400e+02 0 0 0
2018 81 2 0.0000000000000000e+00 -1.2093592917413000e+01 -9.7102738551469372e+00 -1.4530907469396325e+02 0 0 0
2019 81 1 0.0000000000000000e+00 -2.5658201342462310e+00 -1.2702157998094563e+01 -1.4324228712908479e+02 0 0 0
578 24 2 0.0000000000000000e+00 -1.9658300239824815e+00 -9.7368672770637104e+01 -1.2989712165022164e+02 0 0 0
4453 179 4 0.0000000000000000e+00 -2.6094628869687892e+01 -7.5214868968067634e+01 -1.2250887685913328e+02 0 0 0
4385 176 4 0.0000000000000000e+00 -2.2887752974137555e+01 -8.7034192383892560e+01 -1.2257115159873253e+02 0 0 0
4383 176 4 0.0000000000000000e+00 -8.1879614681112329e+00 -8.4347149628111168e+01 -1.3397174389412447e+02 0 0 0
4384 176 4 0.0000000000000000e+00 -1.3718707175163578e+01 -8.6773713349609707e+01 -1.2602745007883850e+02 0 0 0
2247 90 2 0.0000000000000000e+00 -1.1067584401328473e+01 -7.6834199190359058e+01 -1.2880958221413388e+02 0 0 0
4456 179 4 0.0000000000000000e+00 -4.6678448114054724e+01 -6.2647150559610928e+01 -1.3286134719352665e+02 0 0 0
4458 179 4 0.0000000000000000e+00 -5.1788538299835075e+01 -6.7515352094329430e+01 -1.2555377172658210e+02 0 0 0
4454 179 4 0.0000000000000000e+00 -3.1627428331886367e+01 -7.2980194132215630e+01 -1.3025038230385854e+02 0 0 0
4455 179 4 0.0000000000000000e+00 -3.9446051818425069e+01 -6.8585967707356033e+01 -1.3439040744403536e+02 0 0 0
2244 90 1 0.0000000000000000e+00 -2.9010304966454338e+01 -6.1301919347669781e+01 -1.2903487286667246e+02 0 0 0
4463 179 3 0.0000000000000000e+00 -1.9269820826494776e+01 -6.1160444936464287e+01 -1.2220635861462040e+02 0 0 0
2248 90 2 0.0000000000000000e+00 -3.2986604465391021e+00 -7.0483786771100142e+01 -1.2722053270928885e+02 0 0 0
2065 83 2 0.0000000000000000e+00 -4.9532256953923508e+01 -4.8481993277659804e+01 -1.3282308576354509e+02 0 0 0
4457 179 3 0.0000000000000000e+00 -5.5081780271718401e+01 -5.8422012148218997e+01 -1.2882331247952069e+02 0 0 0
2064 83 2 0.0000000000000000e+00 -4.7391714965640887e+01 -5.4710537006619006e+01 -1.2559720820631863e+02 0 0 0
2243 90 2 0.0000000000000000e+00 -3.2451224565688982e+01 -5.4081368104105977e+01 -1.2275514447852913e+02 0 0 0
3061 123 4 0.0000000000000000e+00 -2.4139339445662678e+01 -4.8702445339653103e+01 -1.2286850434589894e+02 0 0 0
4464 179 4 0.0000000000000000e+00 -1.3206464453589296e+01 -5.4028205646584404e+01 -1.2657892775220772e+02 0 0 0
2069 83 1 0.0000000000000000e+00 -7.1633813067923725e+01 -3.4711616121641214e+01 -1.3131413044162247e+02 0 0 0
1143 46 2 0.0000000000000000e+00 -2.8529747331414050e+01 -3.9544229483641331e+01 -1.3423891732796920e+02 0 0 0
2242 90 2 0.0000000000000000e+00 -3.7007638755699709e+01 -4.5039913618188685e+01 -1.2439607729199639e+02 0 0 0
3062 123 4 0.0000000000000000e+00 -1.8955049860726330e+01 -4.1752326323971658e+01 -1.2859123349273642e+02 0 0 0
1142 46 2 0.0000000000000000e+00 -2.6968444959942200e+01 -3.3982128901828567e+01 -1.2549945701210174e+02 0 0 0
4465 179 4 0.0000000000000000e+00 -9.0378376925545520e+00 -4.5519179959962607e+01 -1.2958925036017675e+02 0 0 0
4466 179 4 0.0000000000000000e+00 -7.7140364744211576e+00 -3.5739654426482645e+01 -1.3013879784140974e+02 0 0 0
4500 180 3 0.0000000000000000e+00 -8.0456735224063962e+01 -2.8335189955109797e+01 -1.3456731410467998e+02 0 0 0
2070 83 2 0.0000000000000000e+00 -7.5817813327916980e+01 -3.0931923042979935e+01 -1.2321648091066426e+02 0 0 0
2071 83 2 0.0000000000000000e+00 -7.9046955836764809e+01 -2.1796769562361657e+01 -1.2191331766238591e+02 0 0 0
2009 81 2 0.0000000000000000e+00 -6.4675989684236555e+01 -2.8270938734044879e+01 -1.2307082491756749e+02 0 0 0
2010 81 2 0.0000000000000000e+00 -6.0816778036006767e+01 -2.7735245149639432e+01 -1.3236836075364357e+02 0 0 0
3063 123 3 0.0000000000000000e+00 -1.7415435930081635e+01 -3.2287579400307813e+01 -1.3120715964636233e+02 0 0 0
1141 46 2 0.0000000000000000e+00 -1.9567200644132946e+01 -2.8135739363276556e+01 -1.2178313049640461e+02 0 0 0
1140 46 2 0.0000000000000000e+00 -1.4709924238253002e+01 -2.1324890226798487e+01 -1.2801366879701709e+02 0 0 0
4467 179 4 0.0000000000000000e+00 -9.2502445423642587e+00 -2.7020986055808823e+01 -1.3496741984974568e+02 0 0 0
4498 180 4 0.0000000000000000e+00 -9.2116235018554718e+01 -1.4459283187121914e+01 -1.3401833428795092e+02 0 0 0
2073 83 2 0.0000000000000000e+00 -7.0001990511147952e+01 -1.0163120304390930e+01 -1.3283785622697499e+02 0 0 0
2072 83 2 0.0000000000000000e+00 -7.1930841476642939e+01 -1.5552749870026211e+01 -1.2431584905772640e+02 0 0 0
5000 200 3 0.0000000000000000e+00 -8.1175427606555743e+01 -9.3782178134009762e+00 -1.2897734236436915e+02 0 0 0
4829 194 4 0.0000000000000000e+00 -4.8183368328946365e+01 -1.8878260082476483e+01 -1.3459461759814133e+02 0 0 0
4830 194 4 0.0000000000000000e+00 -5.3915190163250493e+01 -1.1789319208195703e+01 -1.3022534769908677e+02 0 0 0
4891 196 4 0.0000000000000000e+00 -3.1331694127402269e+01 -1.0376117882404237e+01 -1.3432015393387459e+02 0 0 0
4890 196 4 0.0000000000000000e+00 -3.6812705997186491e+01 -1.7027351151170485e+01 -1.2818792393599040e+02 0 0 0
1139 46 2 0.0000000000000000e+00 -7.3203078766520706e+00 -1.3777690244633879e+01 -1.2867203257030420e+02 0 0 0
75 3 1 0.0000000000000000e+00 -1.8844404533349721e+01 -1.0177795324557167e+02 -1.1422936354936814e+02 0 0 0
74 3 2 0.0000000000000000e+00 -1.0992433212885857e+01 -1.0777078496502352e+02 -1.1593111087790973e+02 0 0 0
73 3 2 0.0000000000000000e+00 -4.4075767318058867e+00 -1.1002934017178191e+02 -1.0859724059849420e+02 0 0 0
3076 124 3 0.0000000000000000e+00 -2.2793116324757616e+01 -9.1974216812062366e+01 -1.0981434191242019e+02 0 0 0
581 24 2 0.0000000000000000e+00 -1.1819792499819050e+01 -9.0112569984649326e+01 -1.0947259022403395e+02 0 0 0
580 24 2 0.0000000000000000e+00 -6.1180314048698365e+00 -9.6108877275894926e+01 -1.1485899542710048e+02 0 0 0
4459 179 4 0.0000000000000000e+00 -4.8763240260410676e+01 -7.4278091549086355e+01 -1.1894698854582767e+02 0 0 0
4386 176 4 0.0000000000000000e+00 -1.6338758100331493e+01 -7.9690735481211505e+01 -1.1996409707248860e+02 0 0 0
4452 179 4 0.0000000000000000e+00 -2.4576818751667759e+01 -7.9384458091395857e+01 -1.1363532478376621e+02 0 0 0
4387 176 4 0.0000000000000000e+00 -7.1196088449888517e+00 -7.6876237537746903e+01 -1.1800990896185274e+02 0 0 0
2055 83 2 0.0000000000000000e+00 -2.6220595835795379e-01 -8.2274344704614322e+01 -1.0911641605780510e+02 0 0 0
599 24 2 0.0000000000000000e+00 -5.8776117606787800e+01 -6.6799908867167261e+01 -1.1140391755603004e+02 0 0 0
600 24 1 0.0000000000000000e+00 -6.0923739969353129e+01 -6.1381951770272210e+01 -1.1946563257732377e+02 0 0 0
4460 179 4 0.0000000000000000e+00 -3.9661757898502607e+01 -7.1400106575825831e+01 -1.1542594544402917e+02 0 0 0
4461 179 4 0.0000000000000000e+00 -2.9824116138203927e+01 -7.1058933014385474e+01 -1.1452630561774778e+02 0 0 0
4462 179 4 0.0000000000000000e+00 -2.0082535701862405e+01 -6.9027539754379205e+01 -1.1662031343804509e+02 0 0 0
3058 123 4 0.0000000000000000e+00 -1.6445566373380228e+01 -6.9570096078644468e+01 -1.0662505368426038e+02 0 0 0
3059 123 4 0.0000000000000000e+00 -2.0672670150355984e+01 -6.1249681381745567e+01 -1.1021433603325767e+02 0 0 0
2056 83 2 0.0000000000000000e+00 -2.8444151333059779e+00 -7.2242763826480640e+01 -1.0972585212727010e+02 0 0 0
4676 188 3 0.0000000000000000e+00 -5.7732597657048579e+01 -5.6103444688387810e+01 -1.0933555859692095e+02 0 0 0
2063 83 1 0.0000000000000000e+00 -5.4793265118200885e+01 -5.2359144794376284e+01 -1.1893082678887751e+02 0 0 0
2062 83 2 0.0000000000000000e+00 -4.8731498682872974e+01 -5.6308808417137769e+01 -1.1228167051604788e+02 0 0 0
3060 123 4 0.0000000000000000e+00 -1.9506326222011868e+01 -5.2841817309987356e+01 -1.1483328556901975e+02 0 0 0
1751 71 1 0.0000000000000000e+00 -9.6092486450082193e-01 -5.6817654490838670e+01 -1.1798441406320904e+02 0 0 0
4885 196 4 0.0000000000000000e+00 -1.0241496290447200e+01 -5.1399297285774139e+01 -1.0787637763478939e+02 0 0 0
3173 127 4 0.0000000000000000e+00 -7.1794786739430137e+01 -4.3808892683877616e+01 -1.1141945750782880e+02 0 0 0
3172 127 4 0.0000000000000000e+00 -8.0851977317122874e+01 -4.4821734471268890e+01 -1.0820728009804776e+02 0 0 0
3174 127 4 0.0000000000000000e+00 -6.2109515473982675e+01 -4.2440413725805335e+01 -1.1338017787244499e+02 0 0 0
3175 127 3 0.0000000000000000e+00 -5.3309854963876973e+01 -4.6254364077001526e+01 -1.0963186728339666e+02 0 0 0
950 38 1 0.0000000000000000e+00 -4.9348898552151965e+01 -3.6338876727613425e+01 -1.0636060226007820e+02 0 0 0
2241 90 2 0.0000000000000000e+00 -4.0520100824708805e+01 -3.7447335438324892e+01 -1.1974797016988852e+02 0 0 0
2239 90 2 0.0000000000000000e+00 -3.2331869782255474e+01 -3.9003661293999777e+01 -1.1147946876317486e+02 0 0 0
2238 90 1 0.0000000000000000e+00 -2.6848525130771129e+01 -4.6043207829103096e+01 -1.0872193192964883e+02 0 0 0
4887 196 4 0.0000000000000000e+00 -2.2628340260382043e+01 -3.7382153547582625e+01 -1.1380146508306710e+02 0 0 0
4886 196 4 0.0000000000000000e+00 -1.7111736154794983e+01 -4.5059322441834567e+01 -1.1107926877876615e+02 0 0 0
2008 81 2 0.0000000000000000e+00 -7.0486540090614696e+01 -2.7456460709626075e+01 -1.1477259880812159e+02 0 0 0
2007 81 1 0.0000000000000000e+00 -7.8574019639556624e+01 -2.2780989765934336e+01 -1.1061570267029931e+02 0 0 0
3269 131 3 0.0000000000000000e+00 -7.5180971008425445e+01 -3.3282333392994722e+01 -1.0736150942538993e+02 0 0 0
3267 131 4 0.0000000000000000e+00 -5.9455554850896092e+01 -2.9295394475741730e+01 -1.1194667335721088e+02 0 0 0
3266 131 4 0.0000000000000000e+00 -5.7341298539177536e+01 -2.2329349395688801e+01 -1.1960047570851438e+02 0 0 0
4889 196 4 0.0000000000000000e+00 -3.3839351509970527e+01 -2.0876229431114790e+01 -1.1949005847214900e+02 0 0 0
2240 90 2 0.0000000000000000e+00 -3.9442427892595063e+01 -3.1458096615940448e+01 -1.1131465494904320e+02 0 0 0
4888 196 3 0.0000000000000000e+00 -2.8827872094809798e+01 -2.9364185879906195e+01 -1.1588279889831857e+02 0 0 0
4333 174 4 0.0000000000000000e+00 -3.3079356699408166e+01 -2.1903062960484004e+01 -1.0655962859197345e+02 0 0 0
1831 74 2 0.0000000000000000e+00 -6.0351637638035198e+00 -2.4893285405394487e+01 -1.1765569415048152e+02 0 0 0
3273 131 4 0.0000000000000000e+00 -9.9739919410920535e+01 -9.1297777214896030e+00 -1.1664679709138927e+02 0 0 0
3272 131 4 0.0000000000000000e+00 -9.6043172488001517e+01 -1.5235360389598167e+01 -1.0968248015616572e+02 0 0 0
2006 81 2 0.0000000000000000e+00 -8.5217520373736974e+01 -1.5777238887289409e+01 -1.1007643044779547e+02 0 0 0
4999 200 4 0.0000000000000000e+00 -7.9766151429790241e+01 -8.6270544332270340e+00 -1.1891267328217286e+02 0 0 0
2390 96 2 0.0000000000000000e+00 -6.9626971159902382e+01 -1.3264737573622789e+01 -1.1021265910912541e+02 0 0 0
2389 96 2 0.0000000000000000e+00 -6.0616964250362223e+01 -1.3085623422025714e+01 -1.1435725828698875e+02 0 0 0
3265 131 4 0.0000000000000000e+00 -4.8295510582350559e+01 -1.7285271440411048e+01 -1.1733951766743611e+02 0 0 0
4331 174 4 0.0000000000000000e+00 -4.8048710523359681e+01 -8.5142853864076109e+00 -1.0973293485584549e+02 0 0 0
4332 174 3 0.0000000000000000e+00 -4.2438126670560209e+01 -1.7020275572246131e+01 -1.0677393552623558e+02 0 0 0
3264 131 4 0.0000000000000000e+00 -4.0312993982301542e+01 -1.1514985597829247e+01 -1.1648897413062362e+02 0 0 0
3263 131 3 0.0000000000000000e+00 -3.0460458622148082e+01 -9.2556948248085238e+00 -1.1496046921023212e+02 0 0 0
3262 131 4 0.0000000000000000e+00 -2.1859488640551689e+01 -7.5662568436129405e+00 -1.0956414690406176e+02 0 0 0
4779 192 4 0.0000000000000000e+00 -2.3015081805087272e+00 -6.9187290843294864e+00 -1.1072396260972054e+02 0 0 0
3261 131 4 0.0000000000000000e+00 -1.3612708320687526e+01 -1.2983547675270890e+01 -1.0850832524825572e+02 0 0 0
1830 74 2 0.0000000000000000e+00 -8.0223648254375117e+00 -1.5546993151051684e+01 -1.1961623193707621e+02 0 0 0
3260 131 4 0.0000000000000000e+00 -6.0944128582313297e+00 -1.9466352096991191e+01 -1.0667929774153855e+02 0 0 0
2000 80 1 0.0000000000000000e+00 -6.5704082155142416e+01 -1.1830098220092154e+02 -9.5813959122404185e+01 0 0 0
3079 124 4 0.0000000000000000e+00 -3.1475078759075763e+00 -1.0394596893221407e+02 -9.4057391544054553e+01 0 0 0
3077 124 4 0.0000000000000000e+00 -1.7241251979783645e+01 -9.6353513395682697e+01 -1.0246891644028703e+02 0 0 0
3078 124 4 0.0000000000000000e+00 -7.2261613386093249e+00 -9.6933324090625533e+01 -1.0003886442904215e+02 0 0 0
3167 127 4 0.0000000000000000e+00 -7.0698416658990851e+01 -8.1645127638032051e+01 -9.7436182708087557e+01 0 0 0
596 24 2 0.0000000000000000e+00 -4.8988978143571018e+01 -8.3125667430764253e+01 -9.5257946441777435e+01 0 0 0
4451 179 3 0.0000000000000000e+00 -2.8586839623694310e+01 -7.8025079841254438e+01 -1.0449318922881702e+02 0 0 0
1168 47 2 0.0000000000000000e+00 -1.6998621027568028e+01 -8.6528542772183854e+01 -9.5866389451344389e+01 0 0 0
1169 47 1 0.0000000000000000e+00 -2.2897419808183059e+01 -7.8161649415082550e+01 -9.4916196438145079e+01 0 0 0
3057 123 3 0.0000000000000000e+00 -1.0665872737491883e+01 -7.7768170732502057e+01 -1.0494178012404127e+02 0 0 0
582 24 1 0.0000000000000000e+00 -5.4863014855976919e+00 -8.7498169283594322e+01 -1.0203622154864371e+02 0 0 0
3056 123 4 0.0000000000000000e+00 -1.0035896538512347e+01 -7.5210089429507107e+01 -9.4938346420753930e+01 0 0 0
583 24 2 0.0000000000000000e+00 -4.1367887425160630e+00 -8.2216045052986800e+01 -9.3626945527851746e+01 0 0 0
3168 127 4 0.0000000000000000e+00 -7.2999048763952473e+01 -7.2166932903167023e+01 -9.9893055827840300e+01 0 0 0
3169 127 3 0.0000000000000000e+00 -7.5130560318126612e+01 -6.4548656861672271e+01 -9.3873670978125247e+01 0 0 0
730 30 2 0.0000000000000000e+00 -6.9604536863092505e+01 -6.2129799681800222e+01 -1.0295986440010761e+02 0 0 0
731 30 2 0.0000000000000000e+00 -6.3802037850283199e+01 -7.0171014611393559e+01 -9.9834720773330474e+01 0 0 0
597 24 2 0.0000000000000000e+00 -4.8995679234480335e+01 -7.3321884360643821e+01 -9.8292517560913709e+01 0 0 0
598 24 2 0.0000000000000000e+00 -5.3627289037624358e+01 -6.6257024260777101e+01 -1.0284568166741515e+02 0 0 0
2060 83 2 0.0000000000000000e+00 -3.4091397229241288e+01 -6.5931477077633431e+01 -1.0530262419681792e+02 0 0 0
2230 90 2 0.0000000000000000e+00 -3.8292762114919825e+01 -6.8594231603380592e+01 -9.4002694928375789e+01 0 0 0
2059 83 2 0.0000000000000000e+00 -2.5382216091352795e+01 -6.7136598902219561e+01 -1.0034415367046053e+02 0 0 0
2058 83 2 0.0000000000000000e+00 -1.5781344766467544e+01 -6.5132046671089270e+01 -9.6990168552161691e+01 0 0 0
2057 83 1 0.0000000000000000e+00 -6.8500024704721127e+00 -6.6699391072289174e+01 -1.0208187478906790e+02 0 0 0
3171 127 4 0.0000000000000000e+00 -8.5537787712227583e+01 -5.1027890609306276e+01 -1.0179521697630197e+02 0 0 0
3170 127 4 0.0000000000000000e+00 -8.3443858948944893e+01 -5.9017741848207365e+01 -9.6689498337895955e+01 0 0 0
729 30 2 0.0000000000000000e+00 -7.2609805664038063e+01 -5.2901655377125486e+01 -1.0553494057175459e+02 0 0 0
4677 188 4 0.0000000000000000e+00 -6.2177860430037640e+01 -4.9871848316031283e+01 -1.0270064458317552e+02 0 0 0
4678 188 4 0.0000000000000000e+00 -5.6956103252003651e+01 -4.8501251586728245e+01 -9.3921795869426859e+01 0 0 0
2061 83 2 0.0000000000000000e+00 -4.2108964173270088e+01 -6.0139350671333631e+01 -1.0574548597097984e+02 0 0 0
2235 90 2 0.0000000000000000e+00 -3.9943041880035594e+01 -5.4860925967195627e+01 -9.4988497548677799e+01 0 0 0
2236 90 2 0.0000000000000000e+00 -3.0235544032566406e+01 -5.3184595757200142e+01 -9.6138383133010933e+01 0 0 0
2237 90 2 0.0000000000000000e+00 -2.2244125815250701e+01 -5.0500323703568149e+01 -1.0135950808026551e+02 0 0 0
4884 196 4 0.0000000000000000e+00 -1.7381354113792615e+00 -5.4732206195712209e+01 -1.0406468010353686e+02 0 0 0
4192 168 4 0.0000000000000000e+00 -1.0142335789802793e+02 -4.0619068620093572e+01 -1.0573447257687799e+02 0 0 0
4191 168 4 0.0000000000000000e+00 -1.0443275489602787e+02 -4.2426334779007334e+01 -9.6612350186363614e+01 0 0 0
746 30 2 0.0000000000000000e+00 -8.3604748281298441e+01 -3.4929020519556936e+01 -9.4542751569594870e+01 0 0 0
745 30 2 0.0000000000000000e+00 -8.4023119793197452e+01 -4.4508890904200179e+01 -9.2180589550046463e+01 0 0 0
728 30 2 0.0000000000000000e+00 -7.5753346386544834e+01 -4.4850047589998873e+01 -1.0038077906308025e+02 0 0 0
3268 131 4 0.0000000000000000e+00 -6.5248128263527860e+01 -3.5479719028996904e+01 -1.0594804143615644e+02 0 0 0
54 3 2 0.0000000000000000e+00 -4.5482416656892219e+01 -3.6481804155082010e+01 -9.7463418114247403e+01 0 0 0
55 3 2 0.0000000000000000e+00 -3.6598408069102334e+01 -3.7151185795557865e+01 -9.2669103700678889e+01 0 0 0
57 3 1 0.0000000000000000e+00 -2.5405035255713031e+01 -3.9620653391884460e+01 -9.7547065648502780e+01 0 0 0
58 3 2 0.0000000000000000e+00 -1.5655712540046641e+01 -4.1199487299027609e+01 -1.0080074240126271e+02 0 0 0
59 3 2 0.0000000000000000e+00 -7.5887570301914158e+00 -3.4951300530470363e+01 -1.0149226412535529e+02 0 0 0
4193 168 4 0.0000000000000000e+00 -9.9074124410324657e+01 -3.0475710415557870e+01 -1.0356465612078854e+02 0 0 0
1669 67 1 0.0000000000000000e+00 -1.1046765671647277e+02 -2.1308115863004119e+01 -9.5135190929462198e+01 0 0 0
4194 168 3 0.0000000000000000e+00 -1.0261252037826985e+02 -2.0928055493800969e+01 -1.0335600576304773e+02 0 0 0
1668 67 2 0.0000000000000000e+00 -1.0238852770871991e+02 -2.7451213871596501e+01 -9.4572633840750584e+01 0 0 0
3271 131 4 0.0000000000000000e+00 -9.1653917105832889e+01 -2.2948374497044366e+01 -1.0466902446690658e+02 0 0 0
3270 131 4 0.0000000000000000e+00 -8.4315259109159641e+01 -2.9694798972376415e+01 -1.0621697794156213e+02 0 0 0
747 30 2 0.0000000000000000e+00 -7.5046993421046594e+01 -3.0060488855764557e+01 -9.6294027345726803e+01 0 0 0
748 30 2 0.0000000000000000e+00 -6.6905797486416063e+01 -2.6284332877958821e+01 -1.0066068773059331e+02 0 0 0
749 30 2 0.0000000000000000e+00 -5.8161445324974466e+01 -2.2694237187242358e+01 -1.0344184166901150e+02 0 0 0
949 38 2 0.0000000000000000e+00 -4.5221168012275243e+01 -2.8028694101309199e+01 -1.0263995922783054e+02 0 0 0
948 38 2 0.0000000000000000e+00 -4.7285877354819036e+01 -2.0365076365476778e+01 -9.6300026434981234e+01 0 0 0
2924 117 4 0.0000000000000000e+00 -3.5330177064308444e+01 -2.3735971380180544e+01 -9.1926746082829254e+01 0 0 0
2925 117 3 0.0000000000000000e+00 -2.7066648454478077e+01 -2.8481408087549489e+01 -9.3963559707604730e+01 0 0 0
4334 174 4 0.0000000000000000e+00 -2.5296076072172596e+01 -2.8753156069833025e+01 -1.0492331443965539e+02 0 0 0
4335 174 4 0.0000000000000000e+00 -1.6946178190572184e+01 -2.8595342957461948e+01 -9.9709328029036058e+01 0 0 0
1153 47 2 0.0000000000000000e+00 -3.1634558068493317e+00 -2.6803997277374602e+01 -9.3013500676037381e+01 0 0 0
4336 174 4 0.0000000000000000e+00 -1.2605611428327284e+01 -2.3579901670954925e+01 -9.2134497706094493e+01 0 0 0
1670 67 2 0.0000000000000000e+00 -1.1815814866365058e+02 -1.5680965389991359e+01 -9.5574415463341481e+01 0 0 0
4195 168 4 0.0000000000000000e+00 -1.0474419487227615e+02 -1.1459350402897126e+01 -9.9468983847471279e+01 0 0 0
2005 81 2 0.0000000000000000e+00 -8.5561403746427573e+01 -7.9070498697775129e+00 -1.0315317050194201e+02 0 0 0
2392 96 2 0.0000000000000000e+00 -7.8558187159039193e+01 -2.0149759951022205e+01 -9.4734002490900750e+01 0 0 0
2391 96 2 0.0000000000000000e+00 -7.1349911399388972e+01 -1.6593007461196720e+01 -1.0076631004240643e+02 0 0 0
4199 168 4 0.0000000000000000e+00 -7.2413325602397279e+01 -9.8430324557411044e+00 -9.1946999602359554e+01 0 0 0
4835 194 4 0.0000000000000000e+00 -6.1550141765464168e+01 -1.1773739202642266e+01 -1.0011899285852441e+02 0 0 0
4836 194 4 0.0000000000000000e+00 -6.3102761647052205e+01 -1.7447952493080905e+01 -9.2274252778250130e+01 0 0 0
750 30 1 0.0000000000000000e+00 -5.2253178118575946e+01 -1.4351919855125805e+01 -1.0216694593748338e+02 0 0 0
3554 143 4 0.0000000000000000e+00 -4.2996629233903171e+01 -1.0594025263399921e+01 -9.7103596083354475e+01 0 0 0
2922 117 4 0.0000000000000000e+00 -3.5367538497338707e+01 -7.2152270111179853e+00 -1.0212081300933845e+02 0 0 0
2923 117 4 0.0000000000000000e+00 -3.4281201089767372e+01 -1.4265649868499446e+01 -9.4648880750733625e+01 0 0 0
1218 49 2 0.0000000000000000e+00 -1.0998062202199068e+00 -1.0213256424742520e+01 -9.4712198358982306e+01 0 0 0
1999 80 2 0.0000000000000000e+00 -6.1481158447845090e+01 -1.2402085123755256e+02 -8.8171497659352511e+01 0 0 0
1997 80 2 0.0000000000000000e+00 -5.4824006502614850e+01 -1.1528645204195566e+02 -8.6832828913387175e+01 0 0 0
1998 80 2 0.0000000000000000e+00 -5.4699635666756826e+01 -1.2230405857853276e+02 -7.9955892705178300e+01 0 0 0
1996 80 2 0.0000000000000000e+00 -5.9774895134864181e+01 -1.0632505205706718e+02 -8.6519755537520737e+01 0 0 0
1995 80 2 0.0000000000000000e+00 -5.7927307923748806e+01 -9.6827776297171468e+01 -8.7422765843615281e+01 0 0 0
1994 80 1 0.0000000000000000e+00 -5.7077965361147385e+01 -9.3372265041984505e+01 -7.7774909618520496e+01 0 0 0
595 24 2 0.0000000000000000e+00 -4.8913168612980314e+01 -9.1969230235062525e+01 -9.0480985592554589e+01 0 0 0
1993 80 2 0.0000000000000000e+00 -4.7899721995426475e+01 -9.0570427999685933e+01 -8.0303558762050088e+01 0 0 0
594 24 1 0.0000000000000000e+00 -3.8718366977856853e+01 -9.2553009787145413e+01 -8.9205246549015513e+01 0 0 0
593 24 2 0.0000000000000000e+00 -2.8960110885174661e+01 -9.2908683162976544e+01 -8.7876180957190400e+01 0 0 0
592 24 2 0.0000000000000000e+00 -2.0830635250843194e+01 -8.9769293981716160e+01 -8.3128548749516256e+01 0 0 0
1167 47 2 0.0000000000000000e+00 -9.2120892426369974e+00 -9.0637393950691120e+01 -8.9747724819913984e+01 0 0 0
1166 47 2 0.0000000000000000e+00 -4.4651196282209032e-01 -9.4763344118047925e+01 -8.8418734104968351e+01 0 0 0
733 30 2 0.0000000000000000e+00 -7.6974951950339076e+01 -7.4619586880194092e+01 -8.7480406364035929e+01 0 0 0
3166 127 4 0.0000000000000000e+00 -6.5787078155747778e+01 -8.4794997846188920e+01 -8.8690627138133252e+01 0 0 0
3165 127 4 0.0000000000000000e+00 -6.2363182557753554e+01 -7.7194805006648849e+01 -8.2590298695753305e+01 0 0 0
2232 90 1 0.0000000000000000e+00 -5.0220499059439561e+01 -7.6394649224670161e+01 -8.2816644481977860e+01 0 0 0
2231 90 2 0.0000000000000000e+00 -4.1182210755883652e+01 -7.5372352949182115e+01 -8.6773836466344591e+01 0 0 0
1992 80 2 0.0000000000000000e+00 -4.0614395476057325e+01 -8.4172192800030814e+01 -7.7989998874889466e+01 0 0 0
3054 123 4 0.0000000000000000e+00 -1.6503928923015078e+01 -7.6974475521270477e+01 -7.9159327358448223e+01 0 0 0
1170 47 2 0.0000000000000000e+00 -2.4682855506422442e+01 -7.4851028495904515e+01 -8.5307574365055501e+01 0 0 0
591 24 2 0.0000000000000000e+00 -1.1149011100702786e+01 -8.7194409441325803e+01 -7.9346904728912278e+01 0 0 0
584 24 2 0.0000000000000000e+00 -6.8149241290147600e-01 -8.3187590616050812e+01 -8.4251427932219002e+01 0 0 0
737 30 2 0.0000000000000000e+00 -1.0930331153605805e+02 -6.1340642072250560e+01 -7.8101817569173463e+01 0 0 0
736 30 2 0.0000000000000000e+00 -1.0011170419620808e+02 -6.5167721917861385e+01 -8.1533887400513038e+01 0 0 0
734 30 2 0.0000000000000000e+00 -8.6499542881912234e+01 -7.1935486273079832e+01 -8.7953516702949088e+01 0 0 0
735 30 2 0.0000000000000000e+00 -9.6090269672688976e+01 -7.2707071412904924e+01 -8.5854618749820659e+01 0 0 0
743 30 2 0.0000000000000000e+00 -8.7072705979001739e+01 -6.0763186528727374e+01 -8.1291740119905484e+01 0 0 0
732 30 1 0.0000000000000000e+00 -6.7787999329546167e+01 -7.1874313121764118e+01 -9.0799009939256024e+01 0 0 0
2233 90 2 0.0000000000000000e+00 -4.9944320893830792e+01 -6.6433270979229789e+01 -8.4968583976881533e+01 0 0 0