LAMMPS data file via write_data, version 5 Jun 2019, timestep = 390000000

5000 atoms
4 atom types
5253 bonds
3 bond types
4600 angles
2 angle types

-2.5000000000000000e+02 2.5000000000000000e+02 xlo xhi
-2.5000000000000000e+02 2.5000000000000000e+02 ylo yhi
-2.5000000000000000e+02 2.5000000000000000e+02 zlo zhi

Masses

1 1000
2 1000
3 1000
4 1000

Pair Coeffs # lj/cut

1 0.3 10
2 0.3 10
3 0.3 10
4 0.3 10

Bond Coeffs # harmonic

1 3 10
2 3 10
3 1.8 11.22

Angle Coeffs # cosine

1 2
2 2

Atoms # full

2151 87 1 0.0000000000000000e+00 2.3503281280722341e+01 -3.8860627736918687e+01 -1.9350152235036566e+02 0 0 0
1051 43 1 0.0000000000000000e+00 1.0675194915479429e+01 8.0338123527699388e+00 -1.9510552412343048e+02 0 0 0
1052 43 2 0.0000000000000000e+00 1.6846473306537149e+01 -2.0684258180466653e-01 -1.9445790093746390e+02 0 0 0
2152 87 2 0.0000000000000000e+00 2.2686723754761147e+01 -4.5861254985577162e+01 -1.8675189669104475e+02 0 0 0
2015 81 2 0.0000000000000000e+00 4.8320758445527110e+00 -3.6017171935784511e+01 -1.8035753733351245e+02 0 0 0
2802 113 4 0.0000000000000000e+00 2.1245934950893115e+01 -3.1715587228871321e+01 -1.8000847926646389e+02 0 0 0
4385 176 4 0.0000000000000000e+00 -1.8640906461088594e+01 -1.8436052487209320e+01 -1.7969830645728132e+02 0 0 0
2014 81 2 0.0000000000000000e+00 5.7035302763046525e-01 -2.7189008907099161e+01 -1.7881346040753382e+02 0 0 0
2801 113 3 0.0000000000000000e+00 2.0796494694244490e+01 -2.8860248137801229e+01 -1.8939966429408781e+02 0 0 0
878 36 2 0.0000000000000000e+00 3.0957060560867859e+01 -1.6888399190055164e+01 -1.8202229599266522e+02 0 0 0
4384 176 4 0.0000000000000000e+00 -1.4065532817724026e+01 -9.4441322028051236e+00 -1.7960666371802449e+02 0 0 0
4383 176 4 0.0000000000000000e+00 -7.4457847927764673e+00 -3.9788449309293319e+00 -1.8536698156602105e+02 0 0 0
4382 176 3 0.0000000000000000e+00 -1.2007213743039582e+00 -9.7108180498977639e+00 -1.8059433446033287e+02 0 0 0
4381 176 4 0.0000000000000000e+00 7.2282468293182411e+00 -1.4270015095844656e+01 -1.8021126219686894e+02 0 0 0
1053 43 2 0.0000000000000000e+00 2.4282074840831939e+01 -5.4146442741953127e+00 -1.8935660006829073e+02 0 0 0
4876 196 3 0.0000000000000000e+00 -1.9371696225931121e+01 -7.5131737759398746e+01 -1.6555462348360896e+02 0 0 0
4880 196 4 0.0000000000000000e+00 1.3116386688853114e+01 -7.4262454287120718e+01 -1.7231481572133490e+02 0 0 0
3080 124 4 0.0000000000000000e+00 2.2436419705505717e+01 -7.9124293269184989e+01 -1.6468100767842660e+02 0 0 0
3079 124 4 0.0000000000000000e+00 2.3003269966113582e+01 -8.1783637790916998e+01 -1.7470651354815942e+02 0 0 0
2889 116 4 0.0000000000000000e+00 -5.5056788899007863e+01 -6.1587622153336106e+01 -1.7137144154532010e+02 0 0 0
2890 116 4 0.0000000000000000e+00 -4.7025111430471448e+01 -6.1898101068121470e+01 -1.6479341591029723e+02 0 0 0
2892 116 4 0.0000000000000000e+00 -2.7328252641923015e+01 -6.2009761856472466e+01 -1.6522563923583522e+02 0 0 0
2891 116 4 0.0000000000000000e+00 -3.6853805300605408e+01 -6.0856032645176960e+01 -1.6781639253352824e+02 0 0 0
4877 196 4 0.0000000000000000e+00 -1.3460804375802155e+01 -6.9970886231162538e+01 -1.7184001487696898e+02 0 0 0
4878 196 4 0.0000000000000000e+00 -4.4422223688711755e+00 -6.6174396072147246e+01 -1.7135432362132980e+02 0 0 0
4879 196 4 0.0000000000000000e+00 5.2092263814424591e+00 -6.8981932130744468e+01 -1.7156545214374464e+02 0 0 0
2888 116 3 0.0000000000000000e+00 -5.4673585717032530e+01 -5.4526923806864993e+01 -1.7826512211839997e+02 0 0 0
2887 116 4 0.0000000000000000e+00 -4.8112613520941231e+01 -4.7060147672140026e+01 -1.7568963048176570e+02 0 0 0
2897 116 4 0.0000000000000000e+00 3.1102248920774751e+00 -4.5214977073773113e+01 -1.6674626658825130e+02 0 0 0
2017 81 2 0.0000000000000000e+00 1.2761122473859807e+01 -4.8219125288343989e+01 -1.6577046822834794e+02 0 0 0
2153 87 2 0.0000000000000000e+00 2.4593404705817786e+01 -5.0909719712598317e+01 -1.7799214638087207e+02 0 0 0
2154 87 2 0.0000000000000000e+00 3.1503238542244556e+01 -4.9139850909996511e+01 -1.7080930048407680e+02 0 0 0
2886 116 4 0.0000000000000000e+00 -4.3027659357560367e+01 -4.0197853702802249e+01 -1.7046896548052842e+02 0 0 0
4387 176 4 0.0000000000000000e+00 -1.8093317100545800e+01 -3.0113421058898442e+01 -1.6457239951181640e+02 0 0 0
2898 116 4 0.0000000000000000e+00 5.5412846105201097e-01 -3.5666150313691382e+01 -1.6898949634157111e+02 0 0 0
2016 81 2 0.0000000000000000e+00 1.0199473044998200e+01 -4.1727300945850864e+01 -1.7382425651839415e+02 0 0 0
2804 113 4 0.0000000000000000e+00 1.0325835756754211e+01 -3.5348864336123569e+01 -1.6442461406780592e+02 0 0 0
2803 113 4 0.0000000000000000e+00 1.5628654691450278e+01 -3.0382098744615814e+01 -1.7128429595154392e+02 0 0 0
4386 176 4 0.0000000000000000e+00 -1.6279922193542639e+01 -2.6702726630617608e+01 -1.7400750257126805e+02 0 0 0
2013 81 1 0.0000000000000000e+00 -3.5862032168473332e+00 -1.9057761779964846e+01 -1.7586115208404689e+02 0 0 0
4380 176 4 0.0000000000000000e+00 1.4729706370534153e+01 -1.9464273686988289e+01 -1.7718477981221056e+02 0 0 0
4379 176 4 0.0000000000000000e+00 2.0565637716380756e+01 -1.7003682589860535e+01 -1.6958504384914059e+02 0 0 0
546 22 2 0.0000000000000000e+00 -5.7067324927665666e+01 -1.0260873404300764e+01 -1.6579423179103503e+02 0 0 0
545 22 2 0.0000000000000000e+00 -4.8964969897038337e+01 -8.5081105015732508e+00 -1.7147942977565489e+02 0 0 0
544 22 1 0.0000000000000000e+00 -3.8778536285473500e+01 -8.1250934037246871e+00 -1.7227623176953344e+02 0 0 0
2901 117 3 0.0000000000000000e+00 -2.8247714542907978e+01 -7.9040395592506032e+00 -1.6941760164509975e+02 0 0 0
2902 117 4 0.0000000000000000e+00 -1.8517499517218830e+01 -4.7137131022986205e+00 -1.7123751440595069e+02 0 0 0
2012 81 2 0.0000000000000000e+00 8.9940069295610148e-01 -1.1443426144044048e+01 -1.7117409863741889e+02 0 0 0
2011 81 2 0.0000000000000000e+00 -6.2570132068894484e+00 -5.6114638980350735e+00 -1.6709319996976143e+02 0 0 0
4441 178 4 0.0000000000000000e+00 2.3988414898948683e+01 -2.2956617711742395e+00 -1.7598489399640903e+02 0 0 0
4442 178 4 0.0000000000000000e+00 3.1249966922641818e+01 -8.5982261324116287e+00 -1.7239784569054467e+02 0 0 0
543 22 2 0.0000000000000000e+00 -3.4231878071711691e+01 7.4019715834527267e-01 -1.6910612797171513e+02 0 0 0
542 22 2 0.0000000000000000e+00 -2.8870800830395353e+01 9.9920938827850527e+00 -1.6777781544875478e+02 0 0 0
2903 117 4 0.0000000000000000e+00 -1.2876671658246707e+01 3.6842490575696769e+00 -1.7026520034280122e+02 0 0 0
2904 117 4 0.0000000000000000e+00 -5.3796387476969043e+00 8.8432656958848010e+00 -1.6561884883490507e+02 0 0 0
2134 86 2 0.0000000000000000e+00 8.9214933363103111e+00 3.0820378364365713e+00 -1.6974600205953263e+02 0 0 0
4440 178 4 0.0000000000000000e+00 2.0801992803912679e+01 6.9374334601421923e+00 -1.7371825339453920e+02 0 0 0
2126 86 1 0.0000000000000000e+00 3.1454525440516278e+01 6.0757489501329296e+00 -1.6756211348827810e+02 0 0 0
263 11 1 0.0000000000000000e+00 2.8261090587697218e+01 -9.1289948731939759e+01 -1.5221641955217450e+02 0 0 0
4881 196 4 0.0000000000000000e+00 1.2812117502959474e+01 -7.6325430203605464e+01 -1.6240644261206961e+02 0 0 0
4882 196 3 0.0000000000000000e+00 6.2593897173571946e+00 -8.0461798836652264e+01 -1.5590053145844118e+02 0 0 0
1150 46 1 0.0000000000000000e+00 1.1860344011940743e+01 -7.1706264098498352e+01 -1.5128118006059196e+02 0 0 0
3081 124 4 0.0000000000000000e+00 2.4552455754554931e+01 -8.0275350802441707e+01 -1.5435821203707820e+02 0 0 0
2246 90 2 0.0000000000000000e+00 -7.8006063343667137e+01 -6.0062372115845278e+01 -1.5402754710551153e+02 0 0 0
2247 90 2 0.0000000000000000e+00 -7.0003447097336192e+01 -6.4724038404931420e+01 -1.5012157374351165e+02 0 0 0
2893 116 4 0.0000000000000000e+00 -1.7505631879046941e+01 -6.1106109658826490e+01 -1.6210018417885473e+02 0 0 0
2051 83 1 0.0000000000000000e+00 -1.1742787858167810e+01 -6.8956423457089031e+01 -1.6064628514948276e+02 0 0 0
2894 116 3 0.0000000000000000e+00 -1.4206140913582843e+01 -6.0105024816703988e+01 -1.5219899166551821e+02 0 0 0
2052 83 2 0.0000000000000000e+00 -2.1247510179004037e+00 -6.9191653359216701e+01 -1.5644664015520365e+02 0 0 0
2053 83 2 0.0000000000000000e+00 2.4100705705527266e+00 -6.0669847554471069e+01 -1.5350506970504745e+02 0 0 0
2018 81 2 0.0000000000000000e+00 1.5711976698013236e+01 -5.7578926780045045e+01 -1.6264472871189011e+02 0 0 0
2019 81 1 0.0000000000000000e+00 2.1868716841178223e+01 -6.3794442375654576e+01 -1.5709532072342733e+02 0 0 0
2245 90 2 0.0000000000000000e+00 -7.8992243752014147e+01 -5.0299137711894375e+01 -1.5731008133210898e+02 0 0 0
2896 116 4 0.0000000000000000e+00 -2.1750763998510054e+00 -4.5429661249466911e+01 -1.5765741884014579e+02 0 0 0
2895 116 4 0.0000000000000000e+00 -8.8621205562919272e+00 -5.3393656785105044e+01 -1.5667761800457129e+02 0 0 0
2054 83 2 0.0000000000000000e+00 8.2269543161303655e+00 -5.2322488298944101e+01 -1.5171731936843307e+02 0 0 0
2806 113 4 0.0000000000000000e+00 1.7596527592707293e+01 -4.6711465748513440e+01 -1.5545142275463760e+02 0 0 0
2807 113 3 0.0000000000000000e+00 2.1503054425918904e+01 -5.4373620594286294e+01 -1.5007278936321308e+02 0 0 0
2786 112 4 0.0000000000000000e+00 3.0299578650176677e+01 -4.6005286092816775e+01 -1.5240025167879082e+02 0 0 0
2244 90 1 0.0000000000000000e+00 -7.6548905241220666e+01 -4.0586242347472805e+01 -1.5763438573195666e+02 0 0 0
2243 90 2 0.0000000000000000e+00 -6.7493235562871945e+01 -4.1594498337662806e+01 -1.6250107073343324e+02 0 0 0
2242 90 2 0.0000000000000000e+00 -6.0959760443225782e+01 -4.1509674929386257e+01 -1.5447822224505157e+02 0 0 0
2885 116 4 0.0000000000000000e+00 -4.7243705974764339e+01 -3.6347958727678083e+01 -1.6262703574396917e+02 0 0 0
3065 123 4 0.0000000000000000e+00 -4.1230810742857692e+01 -3.7528117487545913e+01 -1.5108309363702929e+02 0 0 0
1838 74 1 0.0000000000000000e+00 -2.2439055791799888e+01 -3.5432201135418083e+01 -1.5371206542021400e+02 0 0 0
1837 74 2 0.0000000000000000e+00 -1.3106516928087458e+01 -3.6734366623763840e+01 -1.5767773287873291e+02 0 0 0
1836 74 2 0.0000000000000000e+00 -3.4568780179902983e+00 -3.6812037548916770e+01 -1.6005395228352086e+02 0 0 0
1835 74 2 0.0000000000000000e+00 4.0492505259032692e+00 -3.1677720456364511e+01 -1.5483277480201897e+02 0 0 0
2805 113 4 0.0000000000000000e+00 9.2420431230518485e+00 -4.1778748463266020e+01 -1.5715343484894373e+02 0 0 0
1833 74 2 0.0000000000000000e+00 2.2300429291225779e+01 -3.1384141622611342e+01 -1.6115970641437576e+02 0 0 0
2884 116 4 0.0000000000000000e+00 -4.9475415070313950e+01 -2.8763750030851661e+01 -1.5568301178933450e+02 0 0 0
2883 116 4 0.0000000000000000e+00 -5.1249595539243252e+01 -1.9974000513359083e+01 -1.4983722987326647e+02 0 0 0
3066 123 4 0.0000000000000000e+00 -3.9196680752971197e+01 -2.7717506993878363e+01 -1.5295817653463075e+02 0 0 0
4388 176 3 0.0000000000000000e+00 -2.5637252247977496e+01 -2.6084017042821269e+01 -1.5860939468295956e+02 0 0 0
3067 123 4 0.0000000000000000e+00 -3.6360636873961724e+01 -1.7841368973658895e+01 -1.5112317262757580e+02 0 0 0
2141 86 2 0.0000000000000000e+00 -1.2139869165913689e+01 -2.6540528116202921e+01 -1.4983184782151102e+02 0 0 0
2900 116 3 0.0000000000000000e+00 -1.0916606509871512e+01 -2.3360894316647919e+01 -1.5954440051221806e+02 0 0 0
2899 116 4 0.0000000000000000e+00 -2.5475009831554303e+00 -2.7794716103284458e+01 -1.6369637599006401e+02 0 0 0
2138 86 1 0.0000000000000000e+00 3.0354770177572270e+00 -2.1544719494333847e+01 -1.5387739682551538e+02 0 0 0
1834 74 2 0.0000000000000000e+00 1.3751400669910144e+01 -2.8072202991564716e+01 -1.5775393212149058e+02 0 0 0
1832 74 1 0.0000000000000000e+00 2.8815460938003490e+01 -2.3535643313447462e+01 -1.6077996965341302e+02 0 0 0
1764 71 2 0.0000000000000000e+00 2.0095699996476412e+01 -2.4681616701560142e+01 -1.5104765601501504e+02 0 0 0
1765 71 2 0.0000000000000000e+00 2.9221663634959754e+01 -2.9082019050971240e+01 -1.5276424362762202e+02 0 0 0
4525 181 3 0.0000000000000000e+00 -8.8271703552898856e+01 -4.1004141162839112e+00 -1.5208534933403152e+02 0 0 0
3425 137 3 0.0000000000000000e+00 -7.8814242787908654e+01 -1.0938098689283319e+01 -1.5545598066838448e+02 0 0 0
548 22 2 0.0000000000000000e+00 -6.9202787048586728e+01 -8.9257589771714798e+00 -1.5004052146901913e+02 0 0 0
547 22 2 0.0000000000000000e+00 -6.4290531860046258e+01 -8.4844357391808884e+00 -1.5839527514934321e+02 0 0 0
2882 116 3 0.0000000000000000e+00 -5.8891634761631920e+01 -1.3845341442600528e+01 -1.5005456959885248e+02 0 0 0
1571 63 2 0.0000000000000000e+00 -4.6492374564119608e+01 -3.8332757584661676e+00 -1.5833953721769728e+02 0 0 0
1572 63 2 0.0000000000000000e+00 -3.7378304442056383e+01 -9.0567486967775590e+00 -1.5913755446747331e+02 0 0 0
1573 63 2 0.0000000000000000e+00 -2.8784595549193426e+01 -1.3967166243144215e+01 -1.5734994218748207e+02 0 0 0
1574 63 2 0.0000000000000000e+00 -1.9622364578576963e+01 -9.1686844222092052e+00 -1.5694501396822025e+02 0 0 0
1575 63 1 0.0000000000000000e+00 -1.0253792272603173e+01 -1.1511379835449427e+01 -1.5957621637232438e+02 0 0 0
2137 86 2 0.0000000000000000e+00 9.7050138583765033e+00 -1.4874818758145292e+01 -1.5080395474106334e+02 0 0 0
2136 86 2 0.0000000000000000e+00 1.2914885129504004e+01 -7.2977495901794551e+00 -1.5737403248256243e+02 0 0 0
4378 176 4 0.0000000000000000e+00 2.6168225923241135e+01 -1.2625750571933507e+01 -1.6314325004089935e+02 0 0 0
4377 176 4 0.0000000000000000e+00 2.9204688959429266e+01 -6.8266123941845969e+00 -1.5481295206358706e+02 0 0 0
2075 83 1 0.0000000000000000e+00 -8.6463303293986513e+01 8.2318764445542592e-02 -1.6255800088697396e+02 0 0 0
2074 83 2 0.0000000000000000e+00 -8.7870678629941793e+01 6.0518606325475188e+00 -1.5479502052436993e+02 0 0 0
3424 137 4 0.0000000000000000e+00 -7.5358194266455044e+01 -1.1211265317322368e+00 -1.5728003175986686e+02 0 0 0
3423 137 4 0.0000000000000000e+00 -6.6127239337910822e+01 3.0906959108005645e+00 -1.5737500303006198e+02 0 0 0
3422 137 4 0.0000000000000000e+00 -6.0220794993959863e+01 9.3906584644012536e+00 -1.6215449519162317e+02 0 0 0
1570 63 2 0.0000000000000000e+00 -4.7597571113931849e+01 4.6047080937168952e+00 -1.5251356392733217e+02 0 0 0
3273 131 4 0.0000000000000000e+00 -3.0889032754340988e+01 6.1847810066742666e+00 -1.5493522136174138e+02 0 0 0
2010 81 2 0.0000000000000000e+00 -1.1802424904066861e+01 -3.1619273969118294e-01 -1.6063692414302361e+02 0 0 0
2009 81 2 0.0000000000000000e+00 -1.2627138855240963e+01 9.4362177165202592e+00 -1.5837894887175685e+02 0 0 0
3071 123 4 0.0000000000000000e+00 -4.8172921983417609e+00 -2.1811761425295022e+00 -1.5199805643308699e+02 0 0 0
2135 86 2 0.0000000000000000e+00 1.4631786626696137e+01 1.1333016341936766e+00 -1.6225942604257710e+02 0 0 0
3072 123 4 0.0000000000000000e+00 5.3920982359891152e+00 2.0804455872225672e-01 -1.5128558875957643e+02 0 0 0
4900 196 3 0.0000000000000000e+00 -5.6832434992458566e+01 -8.8170243004139337e+01 -1.4229171697814320e+02 0 0 0
2228 90 2 0.0000000000000000e+00 -2.0592419225994508e+01 -8.5032915950764973e+01 -1.3764737915054303e+02 0 0 0
4884 196 4 0.0000000000000000e+00 -5.9572061482061323e-01 -9.5213870935348950e+01 -1.4440647595061523e+02 0 0 0
4883 196 4 0.0000000000000000e+00 4.4577969592180073e+00 -8.7877866443566589e+01 -1.4881313003094431e+02 0 0 0
264 11 2 0.0000000000000000e+00 2.8928946914511791e+01 -9.1783686493286638e+01 -1.4206005647777326e+02 0 0 0
3061 123 4 0.0000000000000000e+00 -4.4290989854104424e+01 -7.3008886168801567e+01 -1.4203212654389267e+02 0 0 0
3060 123 4 0.0000000000000000e+00 -4.1518803647003651e+01 -8.0855321403870519e+01 -1.3562041078890763e+02 0 0 0
2229 90 2 0.0000000000000000e+00 -1.3950114989724902e+01 -8.0271213780112390e+01 -1.4381873943032573e+02 0 0 0
3165 127 4 0.0000000000000000e+00 -2.2135162243277811e+01 -7.2178995025732931e+01 -1.4664025568913817e+02 0 0 0
2230 90 2 0.0000000000000000e+00 -5.0875482265975283e+00 -8.3360942620739849e+01 -1.4048997867664821e+02 0 0 0
2025 81 1 0.0000000000000000e+00 -4.1741089400544285e+00 -7.4190780819955449e+01 -1.3889026314161509e+02 0 0 0
2021 81 2 0.0000000000000000e+00 2.4786489053860784e+01 -7.5356079074461150e+01 -1.4190527751554322e+02 0 0 0
2022 81 2 0.0000000000000000e+00 2.0189178370902400e+01 -8.1827096513161166e+01 -1.3587810072828424e+02 0 0 0
1846 74 2 0.0000000000000000e+00 -7.5740799041998983e+01 -5.9713247041586747e+01 -1.4276261104824138e+02 0 0 0
2248 90 2 0.0000000000000000e+00 -6.5736142867444826e+01 -6.3942390909313836e+01 -1.4141800082827490e+02 0 0 0
2249 90 2 0.0000000000000000e+00 -5.5803408938106941e+01 -6.6371069117797674e+01 -1.3916245392479254e+02 0 0 0
2250 90 1 0.0000000000000000e+00 -5.2467472001970606e+01 -6.3030477571379251e+01 -1.4826090459699759e+02 0 0 0
3062 123 4 0.0000000000000000e+00 -4.3587553372856050e+01 -6.2605152005181630e+01 -1.4428818140066448e+02 0 0 0
57 3 1 0.0000000000000000e+00 -2.5235625478775102e+01 -6.2156458663824601e+01 -1.4846626180255154e+02 0 0 0
56 3 2 0.0000000000000000e+00 -3.3071412653454438e+01 -6.6529163674058040e+01 -1.4416452533594352e+02 0 0 0
3166 127 4 0.0000000000000000e+00 -2.4393472737329041e+01 -6.7458742138750807e+01 -1.3817668195878971e+02 0 0 0
3164 127 4 0.0000000000000000e+00 -1.2243760034596757e+01 -7.0517629993362718e+01 -1.4791347607108594e+02 0 0 0
58 3 2 0.0000000000000000e+00 -1.7325383268873939e+01 -6.0030727708499150e+01 -1.4246815857804160e+02 0 0 0
59 3 2 0.0000000000000000e+00 -1.0145505788858090e+01 -5.9695834228461898e+01 -1.3608485465048074e+02 0 0 0
3163 127 3 0.0000000000000000e+00 -4.8774335254173007e+00 -6.4539042345894231e+01 -1.4484206847009406e+02 0 0 0
3162 127 4 0.0000000000000000e+00 2.1844414476465488e+00 -6.0704926021526198e+01 -1.3958922148105455e+02 0 0 0
1149 46 2 0.0000000000000000e+00 1.1680971927375863e+01 -6.2090677891300814e+01 -1.4751065847713315e+02 0 0 0
2020 81 2 0.0000000000000000e+00 2.4360418271352206e+01 -6.7873872694140417e+01 -1.4804812943068069e+02 0 0 0
2808 113 4 0.0000000000000000e+00 2.5607964545719675e+01 -5.8964198040885918e+01 -1.4205054975307533e+02 0 0 0
4480 180 4 0.0000000000000000e+00 -9.0785497207050469e+01 -4.9682051175195959e+01 -1.3741137938472053e+02 0 0 0
1845 74 2 0.0000000000000000e+00 -7.0257454398386002e+01 -5.1728436922938144e+01 -1.4574655681516225e+02 0 0 0
1844 74 1 0.0000000000000000e+00 -6.5254546452991391e+01 -5.3207593436301657e+01 -1.3720673878228396e+02 0 0 0
3063 123 3 0.0000000000000000e+00 -4.6608891990734115e+01 -5.3820282846566599e+01 -1.4869022823880161e+02 0 0 0
3064 123 4 0.0000000000000000e+00 -4.4393525120071857e+01 -4.4656893816910333e+01 -1.4505986692467366e+02 0 0 0
4459 179 4 0.0000000000000000e+00 -4.3270555299168279e+01 -5.6527539480102625e+01 -1.3641235052041648e+02 0 0 0
4460 179 4 0.0000000000000000e+00 -3.5013816071777285e+01 -5.3994001959909518e+01 -1.4107538041789809e+02 0 0 0
4461 179 4 0.0000000000000000e+00 -2.7279545077364332e+01 -5.1498751178585621e+01 -1.4693773676024773e+02 0 0 0
2057 83 1 0.0000000000000000e+00 -1.2913054949992855e+01 -4.8554277351013702e+01 -1.3693535370196608e+02 0 0 0
2058 83 2 0.0000000000000000e+00 -2.2085915902131440e+01 -5.2416155324036822e+01 -1.3622277259398015e+02 0 0 0
2056 83 2 0.0000000000000000e+00 -2.7895411490834814e+00 -4.7747436604224944e+01 -1.3920217853212750e+02 0 0 0
1148 46 2 0.0000000000000000e+00 1.3822396508318390e+01 -5.6466077369956459e+01 -1.3840634849709889e+02 0 0 0
2055 83 2 0.0000000000000000e+00 5.5568000694282702e+00 -4.6096889982369859e+01 -1.4440922877671565e+02 0 0 0
2785 112 4 0.0000000000000000e+00 2.2855583288941045e+01 -4.4371948068479490e+01 -1.4598564135845601e+02 0 0 0
4991 200 4 0.0000000000000000e+00 -8.6136361815065925e+01 -3.5375382571613123e+01 -1.4754669417102178e+02 0 0 0
4992 200 4 0.0000000000000000e+00 -8.9808707892411178e+01 -3.9547395268874993e+01 -1.3919962858323817e+02 0 0 0
4451 179 3 0.0000000000000000e+00 -6.9982223756941934e+01 -3.9392975648509577e+01 -1.4915414517450293e+02 0 0 0
4452 179 4 0.0000000000000000e+00 -7.0767331387215975e+01 -3.3607062371450979e+01 -1.4126333015363667e+02 0 0 0
2241 90 2 0.0000000000000000e+00 -5.6025070284158303e+01 -4.0316409771685173e+01 -1.4567658125169075e+02 0 0 0
2240 90 2 0.0000000000000000e+00 -5.0699408179874602e+01 -3.6876541713983244e+01 -1.3740454033012361e+02 0 0 0
1840 74 2 0.0000000000000000e+00 -3.0515318968694956e+01 -4.0707643491079871e+01 -1.4096267644629864e+02 0 0 0
1839 74 2 0.0000000000000000e+00 -2.9389676895643404e+01 -3.2295110318917963e+01 -1.4687392469454690e+02 0 0 0
4462 179 4 0.0000000000000000e+00 -2.1494384950610229e+01 -4.3392731058374657e+01 -1.4628651905714923e+02 0 0 0
4463 179 3 0.0000000000000000e+00 -1.3835169319561508e+01 -3.9315238717156483e+01 -1.4099858036165023e+02 0 0 0
1125 45 1 0.0000000000000000e+00 -2.1448954363962741e+01 -3.2114861029011173e+01 -1.3706402506473967e+02 0 0 0
2142 86 2 0.0000000000000000e+00 -7.2524988756338464e+00 -2.9990586460829697e+01 -1.4223273100148288e+02 0 0 0
2784 112 4 0.0000000000000000e+00 1.5471353905988408e+01 -3.8253572104938797e+01 -1.4920475583944915e+02 0 0 0
1762 71 2 0.0000000000000000e+00 1.5626251657410670e+01 -3.5492114266900479e+01 -1.3604682171074768e+02 0 0 0
1766 71 2 0.0000000000000000e+00 3.0398786942840424e+01 -3.6517516794012863e+01 -1.4589475339115279e+02 0 0 0
1763 71 1 0.0000000000000000e+00 2.0397178034363812e+01 -3.0477830889949562e+01 -1.4377058475867435e+02 0 0 0
1671 67 2 0.0000000000000000e+00 -8.5456192043702373e+01 -1.9476621058352059e+01 -1.3853506556883596e+02 0 0 0
4990 200 4 0.0000000000000000e+00 -8.3494454706125651e+01 -2.5859291499993603e+01 -1.4760395153599708e+02 0 0 0
1670 67 2 0.0000000000000000e+00 -7.6150247505142374e+01 -2.0647815754472251e+01 -1.4119566410376194e+02 0 0 0
1669 67 1 0.0000000000000000e+00 -6.6768776704647451e+01 -1.7360853934654713e+01 -1.4296427481050304e+02 0 0 0
4485 180 4 0.0000000000000000e+00 -6.3190109424358475e+01 -2.9670390396976426e+01 -1.3680896233319783e+02 0 0 0
2065 83 2 0.0000000000000000e+00 -4.9069459983653964e+01 -1.6613012274849549e+01 -1.3770575286002310e+02 0 0 0
1141 46 2 0.0000000000000000e+00 -3.7019926337929945e+01 -2.6973256672121231e+01 -1.3939447818666113e+02 0 0 0
4390 176 4 0.0000000000000000e+00 -2.9928333800703978e+01 -1.9574918529104586e+01 -1.4329839196953637e+02 0 0 0
4389 176 4 0.0000000000000000e+00 -2.3669726131237400e+01 -2.5202442344849054e+01 -1.4960374637865331e+02 0 0 0
2140 86 2 0.0000000000000000e+00 -1.4640866075397479e+01 -1.7044436995962975e+01 -1.4807217939698728e+02 0 0 0
1124 45 2 0.0000000000000000e+00 -2.0138995208549183e+01 -2.2346837179934994e+01 -1.4030089788960245e+02 0 0 0
2139 86 2 0.0000000000000000e+00 -3.9783046173230177e+00 -1.6299684733620481e+01 -1.4836483115234981e+02 0 0 0
2781 112 4 0.0000000000000000e+00 -4.0401517350816949e+00 -1.9146075412734614e+01 -1.3931257040598706e+02 0 0 0
2782 112 3 0.0000000000000000e+00 2.0874007804127159e+00 -2.5593642021145531e+01 -1.4429595154490261e+02 0 0 0
2783 112 4 0.0000000000000000e+00 1.0265224796425301e+01 -2.9467970263371285e+01 -1.4810599299378575e+02 0 0 0
3075 123 3 0.0000000000000000e+00 1.3197938151774347e+01 -2.1769945793654841e+01 -1.4132528972278905e+02 0 0 0
1829 74 2 0.0000000000000000e+00 2.8247776397551785e+01 -1.8272502032343905e+01 -1.4081155762815348e+02 0 0 0
4523 181 4 0.0000000000000000e+00 -1.0405805543989020e+02 -3.8207389423029019e+00 -1.4160181318383852e+02 0 0 0
4989 200 4 0.0000000000000000e+00 -8.4461586899000039e+01 -1.5537686621956144e+01 -1.4912486290099309e+02 0 0 0
4988 200 3 0.0000000000000000e+00 -8.0188118688720124e+01 -1.0564439760506295e+01 -1.4214155515476131e+02 0 0 0
549 22 2 0.0000000000000000e+00 -7.7519374049894097e+01 -3.4982087434486546e+00 -1.4783138831460840e+02 0 0 0
4488 180 3 0.0000000000000000e+00 -6.7873521533248805e+01 -5.5555650395687035e+00 -1.3963064059932259e+02 0 0 0
2881 116 4 0.0000000000000000e+00 -6.0225321270851410e+01 -3.1244716901670193e+00 -1.4753756121604607e+02 0 0 0
1668 67 2 0.0000000000000000e+00 -5.9937635583710893e+01 -1.0972329066927943e+01 -1.3779098485875659e+02 0 0 0
2066 83 2 0.0000000000000000e+00 -4.2616928540595914e+01 -9.9462568171793535e+00 -1.4239723864670310e+02 0 0 0
3068 123 4 0.0000000000000000e+00 -3.3096777831576226e+01 -1.0092452346658083e+01 -1.4512211327574417e+02 0 0 0
3070 123 4 0.0000000000000000e+00 -1.3817653364229418e+01 -5.5837602167478311e+00 -1.4852998274292926e+02 0 0 0
3069 123 3 0.0000000000000000e+00 -2.3175279998216048e+01 -8.2525713326854913e+00 -1.4668304398365891e+02 0 0 0
1123 45 2 0.0000000000000000e+00 -1.7994234193434988e+01 -1.2741709015088750e+01 -1.3908297840123339e+02 0 0 0
1122 45 2 0.0000000000000000e+00 -1.2826784323480540e+01 -4.0700534180183014e+00 -1.3805849385487349e+02 0 0 0
2780 112 4 0.0000000000000000e+00 -1.3207045597301990e+00 -9.2385848625038722e+00 -1.3670393284896275e+02 0 0 0
3074 123 4 0.0000000000000000e+00 6.7232337370685462e+00 -1.4430281786961649e+01 -1.4117676655951379e+02 0 0 0
3073 123 4 0.0000000000000000e+00 8.9668426715521914e+00 -5.2029681765893949e+00 -1.4340166672193192e+02 0 0 0
1378 56 2 0.0000000000000000e+00 -9.8204025887646026e+01 1.1040423150902683e+01 -1.4575980640174791e+02 0 0 0
4524 181 4 0.0000000000000000e+00 -9.7108422194966877e+01 -8.0072696423942757e-01 -1.4859377121365605e+02 0 0 0
1379 56 2 0.0000000000000000e+00 -9.5750382966080039e+01 7.3464245819482432e+00 -1.3635793356889951e+02 0 0 0
550 22 1 0.0000000000000000e+00 -8.6103795871412757e+01 -1.1582504784444325e+00 -1.4322715837781132e+02 0 0 0
4491 180 4 0.0000000000000000e+00 -8.3525430075251776e+01 1.0345724973693416e+01 -1.4145718498094678e+02 0 0 0
4490 180 4 0.0000000000000000e+00 -7.6406773237481218e+01 7.0319266026057043e+00 -1.4778233723202590e+02 0 0 0
4489 180 4 0.0000000000000000e+00 -6.8172504782054631e+01 1.5879271743031931e+00 -1.4674785681470379e+02 0 0 0
3645 146 4 0.0000000000000000e+00 -7.5678115586000374e+01 6.2031491638074847e+00 -1.3728134157724702e+02 0 0 0
3646 146 4 0.0000000000000000e+00 -6.9038011092164794e+01 1.1270549807661279e+01 -1.4271057052521920e+02 0 0 0
2880 116 4 0.0000000000000000e+00 -5.7905536024439954e+01 6.7881541270145673e+00 -1.4561861331572828e+02 0 0 0
2879 116 4 0.0000000000000000e+00 -6.2639280911178446e+01 7.0948924692278537e+00 -1.3649744771978695e+02 0 0 0
2069 83 1 0.0000000000000000e+00 -5.3274992267843032e+01 1.1234071714727040e+01 -1.3819695501187016e+02 0 0 0
2067 83 2 0.0000000000000000e+00 -4.0617700010979426e+01 -8.8329392401214302e-01 -1.4679652731709612e+02 0 0 0
2068 83 2 0.0000000000000000e+00 -4.4567679729086990e+01 6.6190293105154279e+00 -1.4093021771466445e+02 0 0 0
3272 131 4 0.0000000000000000e+00 -2.8917068818083724e+01 2.5266583254239574e+00 -1.4565892577343467e+02 0 0 0
3271 131 4 0.0000000000000000e+00 -2.8840192374172112e+01 2.0768231488722932e+00 -1.3579841822918337e+02 0 0 0
3191 128 4 0.0000000000000000e+00 -1.9925243579161730e+01 9.8034970319904033e+00 -1.3891161023782271e+02 0 0 0
2779 112 4 0.0000000000000000e+00 3.3740806439202990e+00 -2.9994042318507115e-02 -1.3637942498546670e+02 0 0 0
2149 86 2 0.0000000000000000e+00 2.6501282418610451e+01 1.7926402633832021e+00 -1.3882285533519493e+02 0 0 0
2226 90 1 0.0000000000000000e+00 -2.4629600750714609e+01 -8.9062955234718473e+01 -1.2234933409576902e+02 0 0 0
2227 90 2 0.0000000000000000e+00 -1.7063483645204492e+01 -8.8150877442956144e+01 -1.2937589279837721e+02 0 0 0
4885 196 4 0.0000000000000000e+00 -1.0256389842792655e+00 -9.5338919714589494e+01 -1.3393794821625445e+02 0 0 0
4886 196 4 0.0000000000000000e+00 -6.1467819943899782e+00 -9.5702228328094606e+01 -1.2544126801711056e+02 0 0 0
366 15 2 0.0000000000000000e+00 -7.7867108588895434e+01 -7.2339280620144862e+01 -1.2197688794047561e+02 0 0 0
4898 196 4 0.0000000000000000e+00 -5.9348526275442374e+01 -7.8521669541545393e+01 -1.3082078617123801e+02 0 0 0
4897 196 4 0.0000000000000000e+00 -5.9227426004220668e+01 -8.1200363906043933e+01 -1.2125256072331379e+02 0 0 0
4899 196 4 0.0000000000000000e+00 -5.1680564351354541e+01 -8.3437971552127237e+01 -1.3512670128601309e+02 0 0 0
3059 123 4 0.0000000000000000e+00 -4.1411983133017557e+01 -8.0808231498554207e+01 -1.2546357188718507e+02 0 0 0
3175 127 3 0.0000000000000000e+00 -2.8914980437310362e+01 -8.4533676109675824e+01 -1.3077710769635837e+02 0 0 0
3173 127 4 0.0000000000000000e+00 -3.0931196326515568e+01 -7.8728294386513099e+01 -1.2204117465095516e+02 0 0 0
3174 127 4 0.0000000000000000e+00 -2.2102296648145799e+01 -7.8075380883986824e+01 -1.2713034638926159e+02 0 0 0
2231 90 2 0.0000000000000000e+00 -4.9764310884769714e+00 -8.4386210073119585e+01 -1.3037463229247740e+02 0 0 0
2024 81 2 0.0000000000000000e+00 2.2248399491265887e+00 -7.5177994533873047e+01 -1.3189788803686167e+02 0 0 0
2232 90 1 0.0000000000000000e+00 -8.1279883163820710e+00 -8.1436587254797871e+01 -1.2154836537360828e+02 0 0 0
2023 81 2 0.0000000000000000e+00 1.1850244074562212e+01 -7.5766169821203960e+01 -1.3388309770483284e+02 0 0 0
620 25 2 0.0000000000000000e+00 2.8130941793955429e+01 -7.6159853718515222e+01 -1.2918001873962351e+02 0 0 0
365 15 2 0.0000000000000000e+00 -8.1407015746853375e+01 -6.4229500478504733e+01 -1.2708432414282251e+02 0 0 0
1847 74 2 0.0000000000000000e+00 -7.1930698594908748e+01 -6.3377410689989560e+01 -1.3398440698859119e+02 0 0 0
1848 74 2 0.0000000000000000e+00 -6.4918084637983767e+01 -6.7731920937788360e+01 -1.2827905516742334e+02 0 0 0
1849 74 2 0.0000000000000000e+00 -5.4747451371474149e+01 -6.8552971262926960e+01 -1.2824868820026586e+02 0 0 0
4457 179 3 0.0000000000000000e+00 -5.5128297982999548e+01 -5.8445706845720181e+01 -1.2180976356449206e+02 0 0 0
4458 179 4 0.0000000000000000e+00 -5.0810510134638442e+01 -5.8803008174388090e+01 -1.3041855723853553e+02 0 0 0
55 3 2 0.0000000000000000e+00 -3.6529318641447304e+01 -6.5500218056097779e+01 -1.3455892375244750e+02 0 0 0
54 3 2 0.0000000000000000e+00 -3.4443111492255127e+01 -6.4870321845532757e+01 -1.2428958173327830e+02 0 0 0