LAMMPS (5 Jun 2019)
Reading restart file ...
  restart file = 5 Jun 2019, LAMMPS = 5 Jun 2019
WARNING: Restart file used different # of processors (../read_restart.cpp:740)
  restoring atom style full from restart
  orthogonal box = (-250 -250 -250) to (250 250 250)
  1 by 2 by 5 MPI processor grid
  restoring pair style lj/cut from restart
  restoring bond style harmonic from restart
  restoring angle style cosine from restart
  5000 atoms
  5251 bonds
  4600 angles
Finding 1-2 1-3 1-4 neighbors ...
  special bond factors lj:   1          1          1         
  special bond factors coul: 0          0          0         
  3 = max # of 1-2 neighbors
  4 = max # of 1-3 neighbors
  8 = max # of 1-4 neighbors
  16 = max # of special neighbors
  special bonds CPU = 0.0130104 secs
  read_restart CPU = 0.115062 secs
1000 atoms in group rxnSites
Neighbor list info ...
  update every 1 steps, delay 1 steps, check yes
  max neighbors/atom: 2000, page size: 100000
  master list distance cutoff = 26.9
  ghost atom cutoff = 26.9
  binsize = 13.45, bins = 38 38 38
  2 neighbor lists, perpetual/occasional/extra = 1 1 0
  (1) pair lj/cut, perpetual
      attributes: half, newton on
      pair build: half/bin/newton
      stencil: half/bin/3d/newton
      bin: standard
  (2) fix bond/create/random, occasional, copy from (1)
      attributes: half, newton on
      pair build: copy
      stencil: none
      bin: none
Setting up Verlet run ...
  Unit style    : real
  Current step  : 300000000
  Time step     : 25
WARNING: Inconsistent image flags (../domain.cpp:784)
Per MPI rank memory allocation (min/avg/max) = 10.27 | 10.6 | 11.19 Mbytes
Step E_pair PotEng KinEng E_bond E_angle Temp Bonds 
300000000   -3808.4485    609.18774    4693.9222     1538.457    2879.1792    315.00573     5251 
301000000   -3736.8683    730.51361    4488.8339    1536.9586    2930.4233     301.2424     5252 
302000000   -3718.3936    732.50047      4738.18    1532.3819    2918.5122    317.97583     5258 
303000000   -3866.4688     577.8194    4679.1251    1539.5109    2904.7773     314.0127     5241 
304000000   -3767.0874    600.42831    4754.8176    1540.7357      2826.78    319.09238     5253 
305000000   -3806.0029     605.4797     4598.695    1533.4032    2878.0794     308.6151     5259 
306000000   -3675.2827    718.42823    4584.9555    1520.1618    2873.5492    307.69305     5256 
307000000   -3826.9507    523.37766    4551.7431     1524.093    2826.2354    305.46419     5254 
308000000   -3711.3832    786.85956     4601.175    1627.4224    2870.8204    308.78153     5252 
309000000   -3751.8739    686.94358    4564.9949    1565.7224     2873.095    306.35351     5262 
310000000   -3846.1238    578.32292    4610.2929    1555.0072    2869.4396    309.39342     5254 
311000000   -3788.4049    692.19406    4581.2664    1567.3882    2913.2108    307.44548     5255 
312000000    -3789.256    652.61378     4625.798    1583.7319    2858.1379    310.43396     5257 
313000000   -3675.4616    744.88991    4681.3528    1561.3305     2859.021     314.1622     5247 
314000000   -3744.4557    621.33443    4660.6151    1499.3577    2866.4324    312.77051     5253 
315000000   -3678.4892    718.81689    4697.5522    1484.5076    2912.7984    315.24933     5251 
316000000    -3740.335    762.33206    4543.0946    1595.1647    2907.5023    304.88379     5258 
317000000   -3810.1191    510.57757    4623.0657    1506.0681    2814.6286     310.2506     5255 
318000000   -3766.1712    679.72486    4610.2566    1569.1814    2876.7146    309.39099     5252 
319000000   -3763.8078    702.07702     4638.864    1614.7181    2851.1667    311.31081     5263 
320000000    -3779.624    732.38168    4520.3944    1640.5041    2871.5016     303.3604     5254 
321000000   -3714.4721    629.54915    4625.1065    1480.9302     2863.091    310.38756     5254 
322000000   -3738.9466    698.79083    4593.9557    1567.6981    2870.0393    308.29704     5256 
323000000   -3811.2345    636.75743    4614.9048    1546.7535    2901.2385    309.70293     5251 
324000000    -3781.641    652.91276    4591.9255    1617.4935    2817.0602     308.1608     5250 
325000000   -3771.1409    666.45668    4679.0754    1557.3341    2880.2635    314.00937     5249 
326000000   -3771.0284    593.49235    4536.4727    1539.6737    2824.8471     304.4394     5257 
327000000   -3771.6089    707.03082    4569.2915    1570.3355    2908.3043    306.64185     5261 
328000000   -3738.7996    642.33124    4665.7022    1560.6649    2820.4659     313.1119     5255 
329000000   -3746.4937     552.2705     4579.415    1511.8166    2786.9476    307.32123     5253 
330000000   -3753.5149     631.0372    4597.2469    1547.7369    2836.8152    308.51792     5256 
331000000    -3824.232    565.35065    4687.9831    1529.6951    2859.8875    314.60716     5259 
332000000   -3833.4361    623.12772    4631.4653    1540.9118     2915.652    310.81429     5259 
333000000   -3850.9656    563.13964    4599.2768    1570.6988    2843.4064    308.65415     5260 
334000000    -3862.866    549.92642    4638.9153    1546.2588    2866.5336    311.31425     5254 
335000000   -3717.9476     720.9297    4515.8832    1582.0908    2856.7865    303.05766     5260 
336000000    -3698.005    671.68178     4605.424     1537.219    2832.4678    309.06667     5259 
337000000    -3782.874    652.03761    4661.4776    1551.9911    2882.9205    312.82839     5254 
338000000   -3774.6525    666.56958    4612.5969    1579.9166    2861.3055    309.54804     5251 
339000000    -3768.748    626.91797    4664.8094    1533.9639    2861.7021    313.05199     5255 
340000000   -3700.6386     655.3182    4684.4185    1545.8397    2810.1171    314.36794     5248 
341000000   -3732.0979    642.90914    4671.3275    1520.7174    2854.2897    313.48941     5253 
342000000   -3679.7168    683.99455    4657.4387    1541.4493     2822.262    312.55735     5261 
343000000   -3750.9276    730.65342    4695.1315    1579.0863    2902.4948    315.08688     5254 
344000000   -3691.9713     779.5605    4596.7977    1590.2538     2881.278    308.48777     5248 
345000000   -3760.8865    649.70807    4676.2155    1524.5359    2886.0587    313.81744     5252 
346000000   -3800.2732    644.55144    4599.7816    1567.4933    2877.3314    308.68802     5259 
347000000   -3907.8873    527.81083    4540.0547    1534.8602     2900.838    304.67979     5260 
348000000   -3743.5721    698.87125    4625.8048    1608.8079    2833.6355    310.43442     5250 
349000000   -3796.0494     679.0909    4605.2698    1578.7091    2896.4312    309.05633     5254 
350000000   -3817.9121     684.2441    4740.2945    1582.7992    2919.3571    318.11774     5256 
351000000   -3756.2627     658.4872    4706.7551    1599.6266    2815.1233    315.86693     5251 
352000000   -3801.9543    505.91857    4643.9993    1494.8165    2813.0564    311.65544     5253 
353000000   -3858.4894    657.92467    4617.4803    1562.3927    2954.0214    309.87577     5257 
354000000   -3796.0667    702.06354    4640.3161    1553.3961    2944.7342    311.40826     5259 
355000000   -3790.3881     703.3628    4636.1784    1571.3195    2922.4315    311.13058     5256 
356000000   -3789.4845     763.6257    4626.3281    1645.8397    2907.2705    310.46953     5259 
357000000   -3743.1174    640.23507    4692.9433    1518.4753    2864.8772    314.94003     5249 
358000000   -3829.4579    567.90994    4604.4408    1576.1388     2821.229     309.0007     5254 
359000000   -3766.9381    628.49749    4599.4271    1563.6032    2831.8324    308.66423     5262 
360000000   -3773.7096    528.01128    4655.3303     1529.796    2771.9249    312.41585     5259 
361000000   -3782.8036    677.12997    4563.8667    1600.2127    2859.7208    306.27779     5256 
362000000   -3703.6339    760.20472    4630.5077    1581.2688    2882.5698    310.75003     5256 
363000000   -3827.6162    576.11181    4610.0708    1475.7866    2927.9415    309.37852     5254 
364000000   -3696.8275    757.98098    4634.6305    1579.6967    2875.1118     311.0267     5255 
365000000   -3731.8492    661.98018    4611.7903    1549.8809    2843.9485    309.49391     5258 
366000000   -3827.6555    629.22106    4727.8969    1567.4225     2889.454    317.28575     5253 
367000000   -3733.8307    773.70351    4512.7625    1591.1017    2916.4325    302.84823     5258 
368000000   -3760.5687    641.97591     4694.333    1569.2878    2833.2568    315.03329     5255 
369000000   -3804.1085    568.14679    4588.4457    1503.9614    2868.2939    307.92728     5245 
370000000   -3763.1306    735.88844     4598.099    1554.1477    2944.8713     308.5751     5251 
371000000   -3794.4395    676.06696     4574.476    1593.6539    2876.8526    306.98978     5260 
372000000   -3792.4722    559.71735    4605.0461    1487.7376    2864.4519    309.04132     5257 
373000000   -3798.5331    565.23053    4613.4596    1539.2933    2824.4703    309.60594     5254 
374000000   -3823.4563    637.76586    4709.2397    1584.5576    2876.6646    316.03367     5252 
375000000   -3732.6476    723.00509    4591.0168    1542.6411    2913.0115    308.09982     5257 
376000000   -3788.4666    626.84608    4638.2769     1574.801    2840.5116    311.27141     5255 
377000000   -3757.3505    625.88887    4660.9895    1559.1146    2824.1248    312.79564     5261 
378000000   -3809.1916    625.20711    4615.7236    1580.8942    2853.5044    309.75788     5257 
379000000   -3773.2449    625.12768    4629.3652    1546.5701    2851.8025    310.67335     5256 
380000000   -3909.8316    562.05924    4710.8185    1580.5125    2891.3784    316.13962     5254 
381000000   -3701.5363    681.53498    4616.8733     1517.784    2865.2873    309.83503     5248 
382000000   -3779.5723    636.87161    4674.8722    1518.1197    2898.3242     313.7273     5254 
383000000   -3823.5853    611.68913    4603.1979    1527.7357    2907.5387    308.91728     5254 
384000000    -3820.214    606.10173    4682.7572     1546.954    2879.3617    314.25645     5259 
385000000   -3707.9356    754.71188    4684.2954    1600.9231    2861.7244    314.35968     5257 
386000000   -3813.5453    648.15669    4523.5247    1554.2614    2907.4405    303.57047     5260 
387000000   -3776.2889    661.53798    4610.3586    1541.1023    2896.7245    309.39783     5260 
388000000   -3746.8768    610.03427    4582.8886    1545.2704    2811.6407    307.55434     5260 
389000000   -3801.6652    641.49272    4603.2212    1521.4022    2921.7557    308.91885     5266 
390000000     -3772.75    641.13295    4645.0842    1516.9645    2896.9184    311.72825     5262 
391000000   -3840.0802    585.31567    4632.8061    1534.0306    2891.3653    310.90427     5264 
392000000   -3809.9296    672.58336    4603.4531    1576.1317    2906.3813    308.93441     5258 
393000000   -3737.4521    608.74291    4641.0267    1534.2978    2811.8972    311.45595     5258 
394000000   -3710.2735     712.0825    4607.8405    1572.8595    2849.4965    309.22884     5253 
395000000   -3746.3908     643.9063    4642.1148    1549.2752    2841.0218    311.52897     5258 
396000000   -3763.6745     662.0887    4598.0602    1554.4468    2871.3164     308.5725     5264 
397000000   -3824.3589    571.16346    4489.6039    1549.2614    2846.2609    301.29408     5261 
398000000   -3799.3165    634.77993    4642.8684    1545.9785    2888.1179    311.57954     5268 
399000000   -3784.3245    646.83231    4553.9291    1549.5746    2881.5822    305.61089     5256 
400000000    -3679.928      694.972    4583.5623    1507.5711    2867.3289    307.59955     5254 
Loop time of 27304.9 on 10 procs for 100000000 steps with 5000 atoms

Performance: 7910.673 ns/day, 0.003 hours/ns, 3662.348 timesteps/s
99.7% CPU use with 10 MPI tasks x no OpenMP threads

MPI task timing breakdown:
Section |  min time  |  avg time  |  max time  |%varavg| %total
---------------------------------------------------------------
Pair    | 9119.9     | 10394      | 11868      | 833.2 | 38.07
Bond    | 1578.5     | 1599.7     | 1623.7     |  32.6 |  5.86
Neigh   | 3685.4     | 3707.4     | 3728.2     |  26.0 | 13.58
Comm    | 5291.5     | 6897.9     | 8568.6     |1213.9 | 25.26
Output  | 0.62919    | 0.6293     | 0.62951    |   0.0 |  0.00
Modify  | 3718.7     | 3742.3     | 3768.1     |  25.0 | 13.71
Other   |            | 963        |            |       |  3.53

Nlocal:    500 ave 536 max 468 min
Histogram: 2 0 0 3 1 0 2 1 0 1
Nghost:    718.9 ave 943 max 595 min
Histogram: 2 1 3 2 0 0 0 0 1 1
Neighs:    9808.1 ave 11131 max 8580 min
Histogram: 3 1 0 0 1 1 0 0 1 3

Total # of neighbors = 98081
Ave neighs/atom = 19.6162
Ave special neighs/atom = 7.3404
Neighbor list builds = 5245445
Dangerous builds = 0
System init for write_restart ...
Total wall time: 7:35:05
