LAMMPS (5 Jun 2019)
Reading restart file ...
  restart file = 5 Jun 2019, LAMMPS = 5 Jun 2019
WARNING: Restart file used different # of processors (../read_restart.cpp:740)
  restoring atom style full from restart
  orthogonal box = (-250 -250 -250) to (250 250 250)
  1 by 2 by 5 MPI processor grid
  restoring pair style lj/cut from restart
  restoring bond style harmonic from restart
  restoring angle style cosine from restart
  5000 atoms
  5251 bonds
  4600 angles
Finding 1-2 1-3 1-4 neighbors ...
  special bond factors lj:   1          1          1         
  special bond factors coul: 0          0          0         
  3 = max # of 1-2 neighbors
  4 = max # of 1-3 neighbors
  8 = max # of 1-4 neighbors
  16 = max # of special neighbors
  special bonds CPU = 0.0105784 secs
  read_restart CPU = 0.200313 secs
1000 atoms in group rxnSites
Neighbor list info ...
  update every 1 steps, delay 1 steps, check yes
  max neighbors/atom: 2000, page size: 100000
  master list distance cutoff = 26.9
  ghost atom cutoff = 26.9
  binsize = 13.45, bins = 38 38 38
  2 neighbor lists, perpetual/occasional/extra = 1 1 0
  (1) pair lj/cut, perpetual
      attributes: half, newton on
      pair build: half/bin/newton
      stencil: half/bin/3d/newton
      bin: standard
  (2) fix bond/create/random, occasional, copy from (1)
      attributes: half, newton on
      pair build: copy
      stencil: none
      bin: none
Setting up Verlet run ...
  Unit style    : real
  Current step  : 300000000
  Time step     : 25
WARNING: Inconsistent image flags (../domain.cpp:784)
Per MPI rank memory allocation (min/avg/max) = 10.27 | 10.6 | 11.19 Mbytes
Step E_pair PotEng KinEng E_bond E_angle Temp Bonds 
300000000   -3808.4485    609.18774    4693.9222     1538.457    2879.1792    315.00573     5251 
301000000   -3854.8021    524.03812    4654.0626    1581.7904    2797.0498    312.33078     5252 
302000000   -3799.4736    633.10974    4533.6107    1572.2709    2860.3124    304.24733     5257 
303000000   -3796.6497    691.37496    4624.7909    1609.2275    2878.7972    310.36638     5253 
304000000   -3791.7893    619.20376    4621.1421    1573.3181     2837.675    310.12151     5259 
305000000   -3745.9906    686.55207    4632.7488    1573.4907    2859.0519    310.90043     5258 
306000000    -3791.825    599.12121    4548.0115    1548.7106    2842.2356    305.21377     5250 
307000000   -3704.3215    740.85323    4609.2478    1561.6643    2883.5104    309.32329     5252 
308000000   -3750.1221    702.58181    4634.1767    1600.9166    2851.7874    310.99625     5261 
309000000   -3815.9875    583.33479    4646.7894    1569.1752    2830.1471    311.84268     5256 
310000000   -3728.0625    720.70979    4553.3746    1561.8199    2886.9524    305.57368     5259 
311000000   -3759.3673    655.36823    4641.0195    1526.0166    2888.7189    311.45546     5251 
312000000   -3774.7669    628.05573    4618.0735    1550.4567    2852.3659    309.91557     5258 
313000000   -3775.2796     633.0125    4614.4846    1537.2302    2871.0619    309.67473     5260 
314000000   -3823.4124    571.85704    4547.8098    1530.4995    2864.7699    305.20023     5251 
315000000   -3798.3169    608.99923    4545.9973     1559.626    2847.6901    305.07859     5251 
316000000   -3846.7383    573.51444     4549.311    1578.8416    2841.4112    305.30097     5255 
317000000   -3794.5294    606.75578    4615.4209     1505.274    2896.0112    309.73756     5254 
318000000   -3849.7909    643.66713     4645.545     1618.847    2874.6111    311.75916     5247 
319000000   -3889.0003    492.78373    4649.6214    1511.3092    2870.4748    312.03273     5259 
320000000   -3796.5232    591.07543    4622.4371    1552.6773    2834.9213    310.20841     5252 
321000000   -3776.3372    623.55551    4595.4688    1554.8208    2845.0719    308.39859     5246 
322000000   -3795.2722    553.19707    4574.2348    1521.2191    2827.2502    306.97359     5242 
323000000   -3850.4667    540.92955    4654.5408    1533.4143     2857.982    312.36287     5257 
324000000   -3839.2696    602.61591    4653.3038    1550.8124    2891.0731    312.27985     5251 
325000000   -3786.0545    675.89543    4547.3324    1579.3685    2882.5814    305.16819     5256 
326000000   -3891.8939    609.96976     4640.852    1640.3287     2861.535    311.44422     5255 
327000000   -3777.9036     683.5223    4711.2765    1591.5457    2869.8801    316.17036     5264 
328000000   -3774.9415    630.67172    4536.3156      1471.08    2934.5333    304.42886     5256 
329000000   -3743.2373    682.04969    4677.8226     1565.998    2859.2889     313.9253     5247 
330000000   -3732.8578    659.70994    4719.8646    1538.6454    2853.9224     316.7467     5253 
331000000   -3773.6787    568.89074    4593.6746    1513.3999    2829.1695    308.27818     5257 
332000000   -3792.1725    673.97102    4659.1636    1550.6991    2915.4444     312.6731     5259 
333000000   -3833.1214    584.24915    4540.5405    1584.4213    2832.9492    304.71239     5256 
334000000    -3766.835    711.64188    4484.2568    1590.7859    2887.6909    300.93523     5251 
335000000   -3799.2846     705.7087    4678.6806    1577.6926    2927.3008    313.98287     5249 
336000000   -3793.5184    628.48465    4565.2686     1569.126    2852.8771    306.37188     5259 
337000000    -3806.978    683.82483    4607.2251     1586.107    2904.6958    309.18755     5256 
338000000   -3611.7106    730.32637    4610.9681    1537.3605    2804.6765    309.43874     5250 
339000000   -3831.8666    513.41794    4588.5816    1522.0192    2823.2653    307.93639     5259 
340000000   -3801.9734    630.93733    4582.4443    1589.6339    2843.2769    307.52453     5258 
341000000   -3806.0557    641.98933    4524.9161    1566.6382    2881.4068    303.66385     5256 
342000000   -3795.5043    610.98815    4650.3862    1552.3432    2854.1493    312.08405     5259 
343000000   -3772.7229    634.52276    4654.1924    1515.3698    2891.8759    312.33949     5254 
344000000   -3742.6961    631.10424    4543.0935    1574.4089    2799.3914    304.88372     5250 
345000000   -3822.4482    689.88374    4619.7101      1585.13    2927.2019    310.02541     5253 
346000000    -3798.664    608.85951    4569.8492    1548.5432    2858.9804    306.67928     5259 
347000000   -3806.8496    613.11437    4540.8224    1557.4126    2862.5514    304.73131     5256 
348000000   -3779.4109    672.43334    4635.5499    1543.3634    2908.4808     311.0884     5245 
349000000   -3844.5859    646.32801     4626.904    1583.7393    2907.1746    310.50818     5258 
350000000   -3785.2023    571.50721    4574.0326    1507.8888    2848.8208    306.96002     5253 
351000000   -3754.2116    688.33267    4637.3571     1547.365    2895.1793    311.20968     5253 
352000000   -3805.0022    601.40622    4650.0464    1570.9887    2835.4197    312.06125     5255 
353000000   -3761.8373    603.78962    4623.4347    1573.3779     2792.249    310.27536     5253 
354000000   -3884.0821    443.26478    4572.6933    1522.1234    2805.2235    306.87014     5253 
355000000   -3808.9684    566.79878     4653.272    1509.8646    2865.9026    312.27772     5265 
356000000   -3858.9503    539.93336    4673.9788    1529.8406    2869.0431    313.66734     5256 
357000000   -3774.1644    685.25496    4662.9282      1630.08    2829.3394    312.92574     5255 
358000000   -3778.3244    567.42128    4597.6687    1550.3749    2795.3707    308.54622     5245 
359000000    -3799.251    554.58923    4641.0497    1512.7651    2841.0751    311.45749     5253 
360000000   -3882.4935    493.83555    4660.0486     1516.367     2859.962    312.73249     5257 
361000000   -3919.1022    461.27448    4533.7166    1529.8076    2850.5691    304.25445     5252 
362000000   -3839.0262    551.18524    4578.5151    1527.4125     2862.799    307.26084     5258 
363000000    -3799.093    525.23682    4619.8738    1543.4754    2780.8544    310.03639     5262 
364000000   -3819.9478    565.23663     4617.212    1532.2149    2852.9695    309.85776     5261 
365000000   -3721.2552    623.68558     4648.229    1558.3186    2786.6221    311.93929     5252 
366000000   -3779.1787    648.38914    4597.4768    1535.3817    2892.1861    308.53334     5260 
367000000   -3846.7251    521.53984     4614.175    1528.0462    2840.2187    309.65395     5255 
368000000   -3882.2631    553.39741    4559.6604    1549.4671    2886.1934    305.99551     5257 
369000000   -3762.2619    677.03643    4545.5628    1569.3465    2869.9518    305.04943     5257 
370000000   -3772.4444    660.79394    4606.1109    1544.6451    2888.5933    309.11278     5258 
371000000   -3794.7374    583.66916    4650.1641    1522.8172    2855.5894    312.06915     5255 
372000000    -3714.325    718.62716    4654.5778    1570.5706    2862.3816    312.36535     5256 
373000000   -3846.7234    626.22502    4588.1298    1603.9187    2869.0298    307.90607     5262 
374000000   -3850.2703    481.83442    4626.5822     1515.473    2816.6317    310.48659     5262 
375000000    -3851.246    557.82868    4549.4579    1514.0707     2895.004    305.31083     5258 
376000000   -3786.2766    610.47433    4620.7608    1552.7586    2843.9924    310.09591     5260 
377000000   -3852.0091    524.96113    4659.5002    1556.3864    2820.5838    312.69569     5258 
378000000   -3855.1879    526.71586    4658.2983    1533.0027    2848.9011    312.61503     5257 
379000000   -3898.5375    501.95313    4663.6809    1525.3015    2875.1892    312.97626     5258 
380000000   -3769.8214    591.28832    4508.9821    1534.1458    2826.9639    302.59453     5258 
381000000    -3751.236    652.51372     4678.411    1585.5255    2818.2243    313.96478     5253 
382000000   -3836.2352    531.86004     4727.026    1525.3007    2842.7946     317.2273     5257 
383000000   -3804.0823    566.57432    4665.8611    1529.7415    2840.9151    313.12256     5250 
384000000   -3764.3552    535.68822    4548.1839    1529.0629    2770.9805    305.22533     5251 
385000000   -3745.1797    600.10903    4478.4672    1515.4051    2829.8837     300.5467     5253 
386000000   -3758.0032     607.9352    4653.0045    1521.8305    2844.1078    312.25977     5255 
387000000   -3776.3143     631.1295    4663.9771    1577.8598     2829.584    312.99613     5265 
388000000   -3761.0977    651.86906    4650.1301    1543.7182    2869.2486    312.06687     5266 
389000000   -3739.6426    630.37144    4636.6363    1595.9646    2774.0495    311.16131     5258 
390000000   -3789.6642    617.84814     4589.325    1561.1139    2846.3984    307.98628     5257 
391000000   -3788.9223    582.95447    4604.4141      1583.07    2788.8068     308.9989     5255 
392000000   -3739.5948    633.61319    4636.5155    1522.9568    2850.2511     311.1532     5257 
393000000   -3870.1947    507.52301    4614.2018    1546.6744    2831.0433    309.65575     5255 
394000000   -3872.6409    547.60662    4604.6181    1588.7368    2831.5107    309.01259     5261 
395000000   -3804.6847    580.88449    4593.1134    1540.2499    2845.3192    308.24052     5251 
396000000   -3813.3416    513.37934    4579.9662    1538.7342    2787.9867    307.35822     5253 
397000000   -3824.5926    509.95912    4567.0278    1553.3986    2781.1531    306.48993     5254 
398000000   -3810.1922    588.97874    4681.9756    1534.9055    2864.2655      314.204     5257 
399000000   -3807.2654    560.66322    4626.9312    1518.5394    2849.3892    310.51001     5253 
400000000   -3786.7993    597.26399    4536.7542    1538.4471    2845.6162     304.4583     5259 
Loop time of 27523.5 on 10 procs for 100000000 steps with 5000 atoms

Performance: 7847.830 ns/day, 0.003 hours/ns, 3633.255 timesteps/s
99.7% CPU use with 10 MPI tasks x no OpenMP threads

MPI task timing breakdown:
Section |  min time  |  avg time  |  max time  |%varavg| %total
---------------------------------------------------------------
Pair    | 9217.4     | 10416      | 11870      | 781.7 | 37.84
Bond    | 1580.7     | 1600.4     | 1621.1     |  33.6 |  5.81
Neigh   | 3695.2     | 3717       | 3736.6     |  22.9 | 13.50
Comm    | 5374.1     | 6993.2     | 8514.7     |1116.4 | 25.41
Output  | 0.57213    | 0.57225    | 0.57241    |   0.0 |  0.00
Modify  | 3737.3     | 3763.7     | 3795.1     |  31.7 | 13.67
Other   |            | 1033       |            |       |  3.75

Nlocal:    500 ave 526 max 466 min
Histogram: 1 1 0 1 1 0 2 2 0 2
Nghost:    768.4 ave 957 max 622 min
Histogram: 1 0 3 1 3 0 0 0 1 1
Neighs:    10003.5 ave 12051 max 8126 min
Histogram: 2 0 1 0 1 2 2 1 0 1

Total # of neighbors = 100035
Ave neighs/atom = 20.007
Ave special neighs/atom = 7.3584
Neighbor list builds = 5246566
Dangerous builds = 0
System init for write_restart ...
Total wall time: 7:38:44
