LAMMPS (5 Jun 2019)
Reading restart file ...
  restart file = 5 Jun 2019, LAMMPS = 5 Jun 2019
WARNING: Restart file used different # of processors (../read_restart.cpp:740)
  restoring atom style full from restart
  orthogonal box = (-250 -250 -250) to (250 250 250)
  1 by 2 by 5 MPI processor grid
  restoring pair style lj/cut from restart
  restoring bond style harmonic from restart
  restoring angle style cosine from restart
  5000 atoms
  5251 bonds
  4600 angles
Finding 1-2 1-3 1-4 neighbors ...
  special bond factors lj:   1          1          1         
  special bond factors coul: 0          0          0         
  3 = max # of 1-2 neighbors
  4 = max # of 1-3 neighbors
  8 = max # of 1-4 neighbors
  16 = max # of special neighbors
  special bonds CPU = 0.00884326 secs
  read_restart CPU = 0.183112 secs
1000 atoms in group rxnSites
Neighbor list info ...
  update every 1 steps, delay 1 steps, check yes
  max neighbors/atom: 2000, page size: 100000
  master list distance cutoff = 26.9
  ghost atom cutoff = 26.9
  binsize = 13.45, bins = 38 38 38
  2 neighbor lists, perpetual/occasional/extra = 1 1 0
  (1) pair lj/cut, perpetual
      attributes: half, newton on
      pair build: half/bin/newton
      stencil: half/bin/3d/newton
      bin: standard
  (2) fix bond/create/random, occasional, copy from (1)
      attributes: half, newton on
      pair build: copy
      stencil: none
      bin: none
Setting up Verlet run ...
  Unit style    : real
  Current step  : 300000000
  Time step     : 25
WARNING: Inconsistent image flags (../domain.cpp:784)
Per MPI rank memory allocation (min/avg/max) = 10.27 | 10.6 | 11.19 Mbytes
Step E_pair PotEng KinEng E_bond E_angle Temp Bonds 
300000000   -3808.4485    609.18774    4693.9222     1538.457    2879.1792    315.00573     5251 
301000000   -3703.1465    682.51414    4555.8416    1535.2929    2850.3677    305.73924     5251 
302000000   -3736.6661     709.0294    4647.8706    1605.6847    2840.0108    311.91523     5262 
303000000   -3785.1422     732.8314    4619.8769    1647.6963    2870.2773     310.0366     5251 
304000000   -3796.0039    742.17856    4672.1729    1608.4943    2929.6882    313.54615     5252 
305000000   -3749.4212    647.07637    4674.2296    1563.5795    2832.9181    313.68417     5254 
306000000   -3697.8365    746.67637    4627.4491    1562.7977    2881.7152    310.54477     5258 
307000000   -3720.6342    704.67725    4591.7584    1608.6499    2816.6616    308.14959     5248 
308000000    -3748.398    575.72039    4691.8525     1531.074    2793.0444    314.86683     5257 
309000000   -3814.7145    550.28253     4544.789    1558.5005    2806.4965    304.99751     5256 
310000000   -3718.7334    693.23135    4541.5769    1556.9236    2855.0412    304.78194     5252 
311000000   -3777.2574    599.34597    4602.8407    1543.5615    2833.0418    308.89331     5254 
312000000   -3804.6098    648.57904    4615.4385    1518.1129    2935.0759    309.73874     5252 
313000000   -3777.0681    509.74826    4708.4656    1516.9636    2769.8528    315.98172     5251 
314000000    -3745.651    725.91439    4608.7012    1550.7228    2920.8426    309.28661     5249 
315000000   -3797.0763     589.3696    4651.0096     1522.201    2864.2449    312.12589     5257 
316000000   -3701.6171    678.59663    4597.2956    1526.6504    2853.5633    308.52119     5240 
317000000   -3741.7647    684.91382    4595.8607    1582.7358    2843.9427    308.42489     5267 
318000000   -3866.4604    530.45446    4626.3615    1516.7492    2880.1657    310.47178     5268 
319000000   -3883.3272    534.93618    4615.4422      1557.64    2860.6234    309.73899     5257 
320000000   -3730.6755    724.85904    4623.9286    1570.2456    2885.2889     310.3085     5254 
321000000   -3739.3659    712.28675    4634.7246    1561.9301    2889.7225    311.03301     5252 
322000000   -3812.4192    637.51523    4590.6391     1526.844    2923.0903    308.07447     5253 
323000000   -3826.1451    706.98506    4710.8707    1594.8763    2938.2539    316.14313     5254 
324000000   -3805.3852    574.72085    4680.5344    1503.5596    2876.5464    314.10728     5260 
325000000   -3645.3991    863.85498    4704.5425     1566.628    2942.6261    315.71845     5262 
326000000   -3710.8634    717.65073    4574.0415    1518.1823    2910.3318    306.96062     5251 
327000000   -3756.3099    648.32194    4594.1256    1558.1552    2846.4766    308.30845     5259 
328000000   -3686.2567    773.96767    4621.9607     1512.905    2947.3193    310.17644     5254 
329000000   -3768.2599    717.59355    4613.8455    1571.9392    2913.9142    309.63184     5253 
330000000   -3803.6392    628.06071    4626.1431    1535.3877    2896.3122    310.45712     5252 
331000000   -3817.7465    615.41155    4690.2372    1546.5502    2886.6079    314.75843     5250 
332000000   -3779.3269    667.66786    4676.0703    1561.2134    2885.7813     313.8077     5255 
333000000   -3781.6904    626.65121    4644.7909    1539.1924    2869.1492    311.70856     5252 
334000000   -3694.9184    738.62031    4576.7912    1555.6299    2877.9088    307.14515     5253 
335000000   -3716.4829    699.13608    4580.6285    1542.5708    2873.0482    307.40267     5255 
336000000   -3799.8653     657.3456    4683.7977    1536.1313    2921.0796    314.32628     5258 
337000000   -3766.7196    612.85001    4539.3741    1538.7032    2840.8665    304.63411     5258 
338000000   -3755.1229    579.66296    4660.0626    1523.0523    2811.7336    312.73343     5253 
339000000   -3759.9625    575.81818    4609.2111     1468.792    2866.9886    309.32083     5256 
340000000   -3760.0256    665.95807    4602.3939    1533.4399    2892.5438    308.86332     5256 
341000000   -3705.7917    773.03364    4630.4975    1563.8856    2914.9397    310.74934     5255 
342000000   -3845.0013    548.14468    4660.2413    1512.5648    2880.5811    312.74542     5252 
343000000   -3713.4535    679.16619    4652.8015    1547.7207     2844.899    312.24614     5247 
344000000   -3634.9925    683.82154    4575.3158    1504.2034    2814.6106    307.04614     5258 
345000000   -3805.7081      590.127    4569.2036    1525.7967    2870.0384    306.63595     5252 
346000000   -3808.7733    585.20509    4591.5998    1536.7628    2857.2156    308.13894     5258 
347000000    -3824.251    581.32832    4601.8939    1592.9926    2812.5868    308.82977     5252 
348000000   -3740.1005    703.89537    4652.7552    1552.3671    2891.6287    312.24304     5259 
349000000    -3826.794     587.8085    4536.7971     1568.146    2846.4565    304.46117     5259 
350000000   -3819.9626    641.32024    4681.2318    1539.1452    2922.1376    314.15408     5247 
351000000   -3797.5397    562.39816    4595.5272    1513.3377    2846.6001    308.40251     5255 
352000000   -3752.6711    630.80023    4661.1303    1531.5854    2851.8859    312.80508     5252 
353000000   -3656.5976     778.0879    4632.6995    1518.1487    2916.5368    310.89712     5241 
354000000   -3783.8938    627.68058    4500.4297    1568.3067    2843.2677    302.02058     5251 
355000000   -3718.3391    789.39738    4683.0144    1589.5675     2918.169    314.27371     5250 
356000000   -3770.7472    642.62695    4615.0251     1497.334    2916.0402      309.711     5252 
357000000   -3846.9076    606.71328    4555.3941    1574.5145    2879.1064     305.7092     5254 
358000000   -3809.4491    685.47572    4572.8427    1608.5749    2886.3499    306.88017     5253 
359000000   -3838.0834    610.82117    4619.6272    1593.9338    2854.9707    310.01984     5253 
360000000   -3754.3774    620.84358    4585.3971    1511.6089    2863.6121    307.72268     5245 
361000000   -3733.7765    661.93103    4803.0386    1590.4722    2805.2353    322.32845     5250 
362000000   -3698.5594    673.36139    4607.8921    1555.0819    2816.8388    309.23231     5254 
363000000   -3781.0417      731.026    4691.1517    1582.5006    2929.5671     314.8198     5246 
364000000   -3780.3294     632.9253    4630.3099    1535.2512    2878.0035    310.73675     5245 
365000000   -3795.8579    471.40011    4730.6196     1503.324     2763.934    317.46846     5255 
366000000   -3698.9152    725.80337    4719.4073    1586.9587    2837.7598    316.71601     5253 
367000000   -3766.2215    653.81244    4629.3084    1588.9496    2831.0843    310.66954     5257 
368000000   -3809.6185    626.18995     4585.706    1550.2508    2885.5576    307.74342     5259 
369000000   -3775.8786    692.11582    4661.0073    1568.1972    2899.7972    312.79683     5254 
370000000   -3794.3478    620.15438    4653.2734    1578.9422      2835.56    312.27782     5254 
371000000   -3819.1437    625.24213     4597.015    1560.5789    2883.8069    308.50235     5263 
372000000   -3817.7716    562.84327    4648.8111    1606.6506    2773.9643    311.97835     5261 
373000000    -3800.896    610.85281    4585.1424    1549.8568    2861.8919    307.70559     5252 
374000000   -3725.6064    607.86065    4652.6671    1559.9166    2773.5505    312.23712     5252 
375000000   -3791.0822    571.31614    4670.0976    1538.0779    2824.3204    313.40687     5248 
376000000   -3760.5277    603.44397    4582.8578    1584.4508    2779.5209    307.55227     5254 
377000000   -3824.3914     572.9233    4588.9733    1574.9399    2822.3749    307.96268     5254 
378000000   -3753.1735    477.74036    4584.3732    1446.9017    2784.0122    307.65397     5249 
379000000   -3731.0758    660.28743    4526.9683    1567.2745    2824.0887    303.80157     5255 
380000000   -3716.5056    694.54808    4564.1831    1539.0906     2871.963    306.29903     5249 
381000000   -3964.4049     478.1798    4521.9022    1556.9433    2885.6414    303.46159     5256 
382000000   -3869.2173     588.3292    4623.4828    1593.8573    2863.6892    310.27859     5261 
383000000   -3768.1958    658.25617    4660.8784    1534.4518    2892.0001    312.78818     5255 
384000000   -3750.8401    617.48626     4625.974     1550.979    2817.3473    310.44577     5253 
385000000   -3842.0892    616.43582    4689.7231    1581.2306    2877.2945    314.72393     5257 
386000000   -3706.6881    613.15202    4666.8073    1469.1578    2850.6823    313.18606     5251 
387000000   -3746.0524      739.207    4650.9613    1563.4821    2921.7774    312.12265     5261 
388000000   -3804.3819    616.82164     4550.737     1525.292    2895.9116    305.39667     5251 
389000000   -3769.4952    684.91737    4580.4419    1570.5984    2883.8142    307.39014     5256 
390000000   -3761.7676    659.23263    4589.7213    1553.8276    2867.1727    308.01288     5256 
391000000   -3777.4859    600.30787    4656.1295    1545.4325    2832.3613    312.46949     5257 
392000000    -3757.993    643.79439    4538.7843    1546.0109    2855.7765    304.59453     5257 
393000000   -3760.5283    683.25009    4582.1631    1576.4267    2867.3517    307.50566     5252 
394000000   -3791.0229    658.75297    4615.7185    1574.8512    2874.9247    309.75753     5245 
395000000   -3783.9239    583.21805    4638.8833     1508.359     2858.783    311.31211     5253 
396000000   -3753.9265      606.018     4699.564    1520.6169    2839.3276    315.38434     5253 
397000000   -3746.3772    708.25477    4734.5727    1551.6844    2902.9475    317.73375     5256 
398000000    -3794.737    678.87338    4595.8802    1560.0534    2913.5569     308.4262     5254 
399000000    -3770.942    664.87326    4629.0319    1556.0665    2879.7487    310.65099     5250 
400000000   -3869.7019    539.64769    4615.2604    1501.7039    2907.6457    309.72679     5248 
Loop time of 27306.5 on 10 procs for 100000000 steps with 5000 atoms

Performance: 7910.212 ns/day, 0.003 hours/ns, 3662.135 timesteps/s
99.7% CPU use with 10 MPI tasks x no OpenMP threads

MPI task timing breakdown:
Section |  min time  |  avg time  |  max time  |%varavg| %total
---------------------------------------------------------------
Pair    | 9040.3     | 10318      | 11794      | 817.4 | 37.79
Bond    | 1575       | 1596       | 1628.7     |  37.3 |  5.84
Neigh   | 3695.1     | 3724.5     | 3757.3     |  28.6 | 13.64
Comm    | 5564.7     | 7017.1     | 8454.6     |1042.3 | 25.70
Output  | 0.58551    | 0.58558    | 0.58572    |   0.0 |  0.00
Modify  | 3697.3     | 3722.6     | 3775.8     |  37.0 | 13.63
Other   |            | 927.7      |            |       |  3.40

Nlocal:    500 ave 532 max 476 min
Histogram: 4 0 1 0 0 1 1 1 1 1
Nghost:    746.6 ave 965 max 632 min
Histogram: 2 3 1 1 1 0 0 0 1 1
Neighs:    10019.2 ave 11988 max 8701 min
Histogram: 3 0 1 2 0 2 0 1 0 1

Total # of neighbors = 100192
Ave neighs/atom = 20.0384
Ave special neighs/atom = 7.2916
Neighbor list builds = 5245590
Dangerous builds = 0
System init for write_restart ...
Total wall time: 7:35:07
