LAMMPS data file via write_data, version 5 Jun 2019, timestep = 300000000

5000 atoms
4 atom types
5291 bonds
3 bond types
4600 angles
2 angle types

-2.5000000000000000e+02 2.5000000000000000e+02 xlo xhi
-2.5000000000000000e+02 2.5000000000000000e+02 ylo yhi
-2.5000000000000000e+02 2.5000000000000000e+02 zlo zhi

Masses

1 1000
2 1000
3 1000
4 1000

Pair Coeffs # lj/cut

1 0.18 10
2 0.18 10
3 0.18 10
4 0.18 10

Bond Coeffs # harmonic

1 3 10
2 3 10
3 3 11.22

Angle Coeffs # cosine

1 2
2 2

Atoms # full

4466 179 4 0.0000000000000000e+00 -4.8366520079550455e+01 4.1943523456627645e+00 -1.8408068936808931e+02 0 0 0
4465 179 4 0.0000000000000000e+00 -4.6160311720540328e+01 -5.0867501200654921e+00 -1.8116135066672567e+02 0 0 0
4467 179 4 0.0000000000000000e+00 -4.7863943821761296e+01 1.4348244379602351e+01 -1.8260591567072035e+02 0 0 0
1850 74 1 0.0000000000000000e+00 -3.7002008964016923e+01 -4.7421772237480226e+01 -1.7216671538700635e+02 0 0 0
4776 192 3 0.0000000000000000e+00 -3.5077474352023145e+01 -3.6917913928626746e+01 -1.6886328465931095e+02 0 0 0
4777 192 4 0.0000000000000000e+00 -2.6611157718315013e+01 -3.8104698389391153e+01 -1.7513888894983930e+02 0 0 0
4779 192 4 0.0000000000000000e+00 -3.7916088833950909e+01 -2.3292892386783503e+01 -1.7943912825657785e+02 0 0 0
4780 192 4 0.0000000000000000e+00 -3.5619014141726929e+01 -2.1047863754313255e+01 -1.7016927346221138e+02 0 0 0
4778 192 4 0.0000000000000000e+00 -3.0925139708205350e+01 -2.9793171634940816e+01 -1.7871001742243794e+02 0 0 0
4464 179 4 0.0000000000000000e+00 -4.2073730992870438e+01 -8.5023496163358558e+00 -1.7253567010529770e+02 0 0 0
3055 123 4 0.0000000000000000e+00 -8.0401453228143623e+01 2.7655995694341189e+00 -1.7622618505226060e+02 0 0 0
3056 123 4 0.0000000000000000e+00 -7.1445505617005651e+01 3.1591484330783732e+00 -1.7170290990889310e+02 0 0 0
1453 59 2 0.0000000000000000e+00 -2.9334158704747111e+01 -1.1273263888234021e-01 -1.6889128359671545e+02 0 0 0
3206 129 4 0.0000000000000000e+00 -7.6607239460302319e+00 -2.8187583569668719e+00 -1.7346100797272513e+02 0 0 0
3207 129 3 0.0000000000000000e+00 -1.3612047463470491e+01 2.8220835620451465e+00 -1.6728698678320734e+02 0 0 0
3054 123 4 0.0000000000000000e+00 -8.3700469682855015e+01 1.2352464354530248e+01 -1.7636891631046461e+02 0 0 0
3053 123 4 0.0000000000000000e+00 -7.6925229516434513e+01 1.8302120035335214e+01 -1.7082097322594817e+02 0 0 0
3052 123 4 0.0000000000000000e+00 -6.8314850059892436e+01 2.0468077715524220e+01 -1.7588248860796952e+02 0 0 0
402 17 2 0.0000000000000000e+00 -5.3465654368118471e+01 1.3744930352419134e+01 -1.7022038370922550e+02 0 0 0
1452 59 2 0.0000000000000000e+00 -3.5297459701125071e+01 7.9173110292401034e+00 -1.6874332704148529e+02 0 0 0
403 17 2 0.0000000000000000e+00 -4.3467574161923430e+01 1.5606923572744062e+01 -1.7030282047352728e+02 0 0 0
2241 90 2 0.0000000000000000e+00 -2.5242404669447879e+01 1.7875844926333201e+01 -1.7309631255730591e+02 0 0 0
2242 90 2 0.0000000000000000e+00 -2.1672816441205796e+01 1.0637954303925902e+01 -1.6637934191689405e+02 0 0 0
3208 129 4 0.0000000000000000e+00 -1.1752669793876274e+01 1.1357769141725452e+01 -1.7192209544112717e+02 0 0 0
1848 74 2 0.0000000000000000e+00 -3.4637595104869831e+01 -6.3343976381510188e+01 -1.5897957032049760e+02 0 0 0
1847 74 2 0.0000000000000000e+00 -2.9539994959108256e+01 -7.1360449376446752e+01 -1.5700120022588800e+02 0 0 0
1849 74 2 0.0000000000000000e+00 -3.6078339813696928e+01 -5.5449688940093765e+01 -1.6574208144192704e+02 0 0 0
3061 123 4 0.0000000000000000e+00 -4.9428801277046482e+01 -3.1079454115790469e+01 -1.5676468625651614e+02 0 0 0
3060 123 4 0.0000000000000000e+00 -5.4902862683578434e+01 -2.2606958089893734e+01 -1.5829125210629678e+02 0 0 0
4781 192 4 0.0000000000000000e+00 -2.9954665067737544e+01 -2.1922748757213377e+01 -1.6148676738266926e+02 0 0 0
4782 192 3 0.0000000000000000e+00 -2.4608912915189173e+01 -2.1610702038117264e+01 -1.5229051441901427e+02 0 0 0
3059 123 4 0.0000000000000000e+00 -5.4956396569538249e+01 -1.1959603027574371e+01 -1.5868141354177314e+02 0 0 0
4462 179 4 0.0000000000000000e+00 -3.9191098887552108e+01 -1.5884892303936931e+01 -1.5458694039012866e+02 0 0 0
4463 179 3 0.0000000000000000e+00 -3.9809229642297524e+01 -1.0304031022331966e+01 -1.6282668672082218e+02 0 0 0
1454 59 2 0.0000000000000000e+00 -2.4369834443975069e+01 -6.9163095093027929e+00 -1.6256372041927210e+02 0 0 0
1455 59 2 0.0000000000000000e+00 -1.6328404244682982e+01 -1.2506669399620559e+01 -1.6338695116388487e+02 0 0 0
1456 59 2 0.0000000000000000e+00 -1.4949129588257748e+01 -1.9293919455402033e+01 -1.5601848661241303e+02 0 0 0
401 17 1 0.0000000000000000e+00 -5.8664260033169832e+01 6.6790510553844822e+00 -1.6455147137579394e+02 0 0 0
3057 123 3 0.0000000000000000e+00 -6.5866510946999554e+01 -2.2981694469440961e+00 -1.6594271828309962e+02 0 0 0
3058 123 4 0.0000000000000000e+00 -5.7162921603537455e+01 -2.2368762891762746e+00 -1.6031230722733460e+02 0 0 0
3408 137 4 0.0000000000000000e+00 -4.8245256040576621e+01 4.6921874361918725e+00 -1.5825928475405681e+02 0 0 0
2244 90 1 0.0000000000000000e+00 -3.2738749340175509e+01 -2.4033066278453039e+00 -1.5860672492627921e+02 0 0 0
3407 137 3 0.0000000000000000e+00 -3.9442133531824126e+01 4.4892307837602017e+00 -1.5431889505453933e+02 0 0 0
2243 90 2 0.0000000000000000e+00 -2.4774483922770791e+01 3.3618835617893312e+00 -1.6066352244716114e+02 0 0 0
3410 137 4 0.0000000000000000e+00 -5.9962127906223635e+01 1.8404131167220395e+01 -1.5209025348737308e+02 0 0 0
3409 137 4 0.0000000000000000e+00 -5.4972190927835200e+01 9.9995178232034618e+00 -1.5283213912279442e+02 0 0 0
1451 59 1 0.0000000000000000e+00 -3.4273807088326357e+01 1.2926754871516859e+01 -1.5963394830023847e+02 0 0 0
406 17 2 0.0000000000000000e+00 -2.1088200365696363e+01 1.5169037307121403e+01 -1.5665744189120571e+02 0 0 0
407 17 1 0.0000000000000000e+00 -1.2652112150369183e+01 9.2038570165132114e+00 -1.5811498262795612e+02 0 0 0
2393 96 2 0.0000000000000000e+00 -6.0616794768144935e+01 -8.5010919124038836e+01 -1.3853422726230625e+02 0 0 0
2392 96 2 0.0000000000000000e+00 -5.4815116597257486e+01 -7.7716943958574191e+01 -1.4141544551628729e+02 0 0 0
1846 74 2 0.0000000000000000e+00 -2.1588046708417604e+01 -7.4619115046206929e+01 -1.5172378440976297e+02 0 0 0
1845 74 2 0.0000000000000000e+00 -1.4429351421186235e+01 -7.4694112412149778e+01 -1.4443376570721944e+02 0 0 0
275 11 1 0.0000000000000000e+00 -3.3563952228145332e+01 -4.9942863154941215e+01 -1.4001440341820486e+02 0 0 0
2376 96 1 0.0000000000000000e+00 -1.0994105184260117e+02 -4.1397819527176296e+01 -1.3874778372322038e+02 0 0 0
3151 127 3 0.0000000000000000e+00 -1.0127398281763367e+02 -4.6104250444347059e+01 -1.4443967616906949e+02 0 0 0
3152 127 4 0.0000000000000000e+00 -9.9037559895342099e+01 -3.7676334610952615e+01 -1.3968767124648767e+02 0 0 0
3062 123 4 0.0000000000000000e+00 -4.2293055936330518e+01 -3.4314021947829659e+01 -1.4976293415393209e+02 0 0 0
3063 123 3 0.0000000000000000e+00 -3.7793776822286937e+01 -4.0108817586279876e+01 -1.4316838970032222e+02 0 0 0
274 11 2 0.0000000000000000e+00 -2.7793098252362608e+01 -4.1728498420803454e+01 -1.3972190680527896e+02 0 0 0
4461 179 4 0.0000000000000000e+00 -3.4787652371988557e+01 -2.3132190988082698e+01 -1.4998531799930655e+02 0 0 0
4460 179 4 0.0000000000000000e+00 -3.1176021975701957e+01 -2.8382621549912841e+01 -1.4189486060481187e+02 0 0 0
4459 179 4 0.0000000000000000e+00 -2.1961707826844258e+01 -2.4433145481854119e+01 -1.4012840925251228e+02 0 0 0
1457 59 1 0.0000000000000000e+00 -1.5426544120032379e+01 -2.7123603439390575e+01 -1.5062189005397715e+02 0 0 0
1458 59 2 0.0000000000000000e+00 -1.1829745735469629e+01 -3.1015150512036854e+01 -1.4211529078012146e+02 0 0 0
2246 90 2 0.0000000000000000e+00 -3.7852797187085542e+01 -7.3297232705324644e+00 -1.4098524690847728e+02 0 0 0
2245 90 2 0.0000000000000000e+00 -3.6294811895786872e+01 -7.6337843472815585e+00 -1.5055127150333627e+02 0 0 0
4783 192 4 0.0000000000000000e+00 -2.2806922654595471e+01 -1.3485196491644700e+01 -1.4602728047568658e+02 0 0 0
4784 192 4 0.0000000000000000e+00 -2.3570531170621198e+01 -6.0756078418464181e+00 -1.3826288415227143e+02 0 0 0
3405 137 4 0.0000000000000000e+00 -2.0610913728501064e+01 6.0168926405979262e+00 -1.4596307808836090e+02 0 0 0
3406 137 4 0.0000000000000000e+00 -2.9698846535570247e+01 5.5616092149653866e+00 -1.5075933423016386e+02 0 0 0
3403 137 4 0.0000000000000000e+00 -7.0453901647956583e+00 -5.8427965418299515e+00 -1.3889888424123774e+02 0 0 0
408 17 2 0.0000000000000000e+00 -9.1029688199449570e+00 5.7380222612304932e+00 -1.4905480132754491e+02 0 0 0
3404 137 4 0.0000000000000000e+00 -1.4460222281444370e+01 3.2972968595035596e-01 -1.3980178093858623e+02 0 0 0
3417 137 4 0.0000000000000000e+00 -1.0457550220218640e+02 1.9003291443597465e+01 -1.4451198922537517e+02 0 0 0
3416 137 4 0.0000000000000000e+00 -9.7670670015468332e+01 1.1101644135280836e+01 -1.4537415176393506e+02 0 0 0
1058 43 2 0.0000000000000000e+00 -5.9405642185432699e+00 1.6692694151695349e+01 -1.4306347979595776e+02 0 0 0
2396 96 2 0.0000000000000000e+00 -8.5273178300719849e+01 -8.7966746529234214e+01 -1.2467612020841703e+02 0 0 0
3527 142 4 0.0000000000000000e+00 -1.8451256203532967e+01 -9.0931615265431191e+01 -1.2641567666476594e+02 0 0 0
4376 176 3 0.0000000000000000e+00 -7.5645142535513671e+01 -7.6383451574635131e+01 -1.3708621765512177e+02 0 0 0
2395 96 2 0.0000000000000000e+00 -7.7860331982089477e+01 -8.6870195977546942e+01 -1.3166329806478964e+02 0 0 0
4377 176 4 0.0000000000000000e+00 -7.6305844402956879e+01 -7.6820367159127031e+01 -1.2719253305486201e+02 0 0 0
2394 96 1 0.0000000000000000e+00 -6.8502159877758714e+01 -8.3679264984094090e+01 -1.3331179529563738e+02 0 0 0
3526 142 3 0.0000000000000000e+00 -2.0596533334416076e+01 -8.1222244020513017e+01 -1.2807353261983917e+02 0 0 0
3171 127 4 0.0000000000000000e+00 -7.7548636253850205e+01 -6.2867055530652813e+01 -1.2591029303682409e+02 0 0 0
2390 96 2 0.0000000000000000e+00 -6.2008387803313575e+01 -6.4958292517632444e+01 -1.3010705087220066e+02 0 0 0
2391 96 2 0.0000000000000000e+00 -5.5187357091203658e+01 -7.0977781934640063e+01 -1.3414625167813747e+02 0 0 0
1843 74 2 0.0000000000000000e+00 -2.0293348866296938e+01 -6.6410076249613709e+01 -1.3089309959704667e+02 0 0 0
1844 74 1 0.0000000000000000e+00 -1.4629811010107481e+01 -7.3906002003063662e+01 -1.3402132093874772e+02 0 0 0
3275 131 3 0.0000000000000000e+00 -6.0546671986299447e+00 -6.9903350342735408e+01 -1.2596527914464281e+02 0 0 0
3170 127 4 0.0000000000000000e+00 -8.4637258673349407e+01 -5.5311502119606345e+01 -1.2746193594683838e+02 0 0 0
1841 74 2 0.0000000000000000e+00 -3.1590412463067047e+01 -4.9791895180819395e+01 -1.2940345660928023e+02 0 0 0
1842 74 2 0.0000000000000000e+00 -2.4792311290786696e+01 -5.7252690971120764e+01 -1.3027494724449133e+02 0 0 0
273 11 2 0.0000000000000000e+00 -2.1211871671054489e+01 -4.9320827496545277e+01 -1.3792953564384075e+02 0 0 0
271 11 2 0.0000000000000000e+00 -4.8452972846683044e+00 -5.9439270553882437e+01 -1.3367329322807825e+02 0 0 0
1829 74 2 0.0000000000000000e+00 -1.5167622846109127e+01 -4.8464963293762771e+01 -1.2774721955459304e+02 0 0 0
272 11 2 0.0000000000000000e+00 -1.3359838502944781e+01 -5.5359965817217898e+01 -1.3667994497103899e+02 0 0 0
1828 74 2 0.0000000000000000e+00 -6.5663301755077885e+00 -5.2957049029408168e+01 -1.2656148486803377e+02 0 0 0
2377 96 2 0.0000000000000000e+00 -1.0372129732878336e+02 -4.6778971973827709e+01 -1.3318731415563630e+02 0 0 0
3169 127 3 0.0000000000000000e+00 -8.8635939062773076e+01 -4.6521128722882523e+01 -1.3053447667951977e+02 0 0 0
3153 127 4 0.0000000000000000e+00 -9.3950699023663674e+01 -3.4749667188100574e+01 -1.3112965388681127e+02 0 0 0
3168 127 4 0.0000000000000000e+00 -8.4670986354979760e+01 -3.7338722276034865e+01 -1.3288872500565080e+02 0 0 0
2172 87 2 0.0000000000000000e+00 -7.7312592927084964e+01 -3.7037061803382898e+01 -1.2491686750878982e+02 0 0 0
2171 87 2 0.0000000000000000e+00 -6.7243207397340768e+01 -3.5995808666575101e+01 -1.2626537538797116e+02 0 0 0
3065 123 4 0.0000000000000000e+00 -4.4530414760197218e+01 -3.9641186666298708e+01 -1.2514103342609037e+02 0 0 0
3064 123 4 0.0000000000000000e+00 -4.2848643187251270e+01 -4.2106289152069010e+01 -1.3502918430755687e+02 0 0 0
1830 74 2 0.0000000000000000e+00 -2.2134468119387762e+01 -4.1978599746393002e+01 -1.3159441789067537e+02 0 0 0
1459 59 2 0.0000000000000000e+00 -8.6243084444960552e+00 -3.8525179253877390e+01 -1.3583066236614704e+02 0 0 0
1460 59 2 0.0000000000000000e+00 -4.0999365151875651e+00 -4.3224283592825614e+01 -1.2791043106743464e+02 0 0 0
2066 83 2 0.0000000000000000e+00 -9.8600695054660193e+01 -2.5174431539119315e+01 -1.2668690827202192e+02 0 0 0
3154 127 4 0.0000000000000000e+00 -8.7727887929312715e+01 -2.9275964043605200e+01 -1.2538441219673599e+02 0 0 0
3167 127 4 0.0000000000000000e+00 -7.7333629813187386e+01 -3.2218706039843667e+01 -1.3725184063851628e+02 0 0 0
3166 127 4 0.0000000000000000e+00 -6.8762978161797292e+01 -2.9671934249984929e+01 -1.3550192516393074e+02 0 0 0
3165 127 4 0.0000000000000000e+00 -6.1008202056055097e+01 -2.6308716283531854e+01 -1.3005677173192359e+02 0 0 0
3164 127 4 0.0000000000000000e+00 -5.2071139893303481e+01 -2.6104666988317692e+01 -1.2575302817443981e+02 0 0 0
3163 127 3 0.0000000000000000e+00 -4.2308153485221858e+01 -2.5364035098495954e+01 -1.2574526677045907e+02 0 0 0
3162 127 4 0.0000000000000000e+00 -3.3229503854134855e+01 -2.7243060766597097e+01 -1.2714208979283455e+02 0 0 0
1831 74 2 0.0000000000000000e+00 -2.0111543433065641e+01 -3.2949806340375652e+01 -1.2847803850778237e+02 0 0 0
1832 74 1 0.0000000000000000e+00 -2.1420495661034263e+01 -2.3119013585055193e+01 -1.2577100505822561e+02 0 0 0
3401 137 3 0.0000000000000000e+00 -1.0442379216496702e+01 -2.1566325466040379e+01 -1.3086687867501627e+02 0 0 0
2065 83 2 0.0000000000000000e+00 -9.2427647602237329e+01 -1.7866799074489528e+01 -1.2867687168169658e+02 0 0 0
4455 179 4 0.0000000000000000e+00 -4.5732259499226068e+01 -8.7544810157105868e+00 -1.2494438923928919e+02 0 0 0
4456 179 4 0.0000000000000000e+00 -3.6058912147118818e+01 -1.1211771880793076e+01 -1.2638406492966818e+02 0 0 0
4458 179 4 0.0000000000000000e+00 -1.8403503610028903e+01 -1.6054025735282451e+01 -1.3495299320854781e+02 0 0 0
4457 179 3 0.0000000000000000e+00 -2.6179214707321471e+01 -1.3085517688919508e+01 -1.2900652421081304e+02 0 0 0
3402 137 4 0.0000000000000000e+00 -5.1646618929276320e+00 -1.4665804855609665e+01 -1.3573202357183436e+02 0 0 0
4477 180 4 0.0000000000000000e+00 -1.1899638372879117e+02 6.3411835741463332e+00 -1.3251508092058108e+02 0 0 0
4453 179 4 0.0000000000000000e+00 -6.4588506760410539e+01 -1.3344871545954873e+00 -1.2446402220888660e+02 0 0 0
4487 180 4 0.0000000000000000e+00 -6.1934643432100465e+01 5.5479658048591496e+00 -1.3182068170181293e+02 0 0 0
4454 179 4 0.0000000000000000e+00 -5.5555717897255427e+01 -5.4498266657983461e+00 -1.2613734721137358e+02 0 0 0
2248 90 2 0.0000000000000000e+00 -4.7424980350951223e+01 2.8582008348994368e+00 -1.2800858156449860e+02 0 0 0
2247 90 2 0.0000000000000000e+00 -4.4829929761561829e+01 -3.4164543569748704e+00 -1.3567494517334879e+02 0 0 0
4785 192 4 0.0000000000000000e+00 -1.9102261161152004e+01 -5.7765923258568135e+00 -1.2932675873338999e+02 0 0 0
4787 192 4 0.0000000000000000e+00 -3.7234614555138710e+00 -8.9192648970077937e-01 -1.2498508227725385e+02 0 0 0
4476 180 3 0.0000000000000000e+00 -1.2061328211008885e+02 1.6488456113196747e+01 -1.3285388374111690e+02 0 0 0
2016 81 2 0.0000000000000000e+00 -1.0116000087812125e+02 1.7316097222098357e+01 -1.2872945059542621e+02 0 0 0
3415 137 4 0.0000000000000000e+00 -9.2453942595473919e+01 1.2311712318289061e+01 -1.3699707050342889e+02 0 0 0
2059 83 2 0.0000000000000000e+00 -9.6446962241072740e+01 8.6400237175995063e+00 -1.2620490558142157e+02 0 0 0
4485 180 4 0.0000000000000000e+00 -7.6087360531456682e+01 1.7669671326428265e+01 -1.2502847085925681e+02 0 0 0
4486 180 4 0.0000000000000000e+00 -6.8960623195232117e+01 1.2513293560320324e+01 -1.2950963005266121e+02 0 0 0
4488 180 3 0.0000000000000000e+00 -5.6599239193437718e+01 1.4077728423758705e+01 -1.3082670341825346e+02 0 0 0
2249 90 2 0.0000000000000000e+00 -4.4778960095152577e+01 1.1775214154177322e+01 -1.2438383602663349e+02 0 0 0
1053 43 2 0.0000000000000000e+00 -4.5392698407844080e+01 2.0111103261372509e+01 -1.3554883500908250e+02 0 0 0
1054 43 2 0.0000000000000000e+00 -3.8299717371961158e+01 1.3982137226614601e+01 -1.3220933238159469e+02 0 0 0
1055 43 2 0.0000000000000000e+00 -2.8947533221276064e+01 1.2233251533375663e+01 -1.3522196239565753e+02 0 0 0
1056 43 2 0.0000000000000000e+00 -1.9774227755188129e+01 8.6761232058790529e+00 -1.3382403400578983e+02 0 0 0
1057 43 1 0.0000000000000000e+00 -1.1422433885255568e+01 1.1987853804026203e+01 -1.3700502753848750e+02 0 0 0
3181 128 4 0.0000000000000000e+00 -1.2452009697432775e+01 1.2171632362793645e+01 -1.2566371547665501e+02 0 0 0
3182 128 3 0.0000000000000000e+00 -3.1075561053565814e+00 1.4389403552825005e+01 -1.2956552961828541e+02 0 0 0
2397 96 2 0.0000000000000000e+00 -8.9866566547644609e+01 -9.3362514085215466e+01 -1.1778200248523326e+02 0 0 0
3528 142 4 0.0000000000000000e+00 -2.2491967717059175e+01 -9.6424403549360903e+01 -1.1950883005692637e+02 0 0 0
3529 142 4 0.0000000000000000e+00 -1.6821732115935543e+01 -9.9526634543120949e+01 -1.1162970244988870e+02 0 0 0
265 11 2 0.0000000000000000e+00 -1.6314499258440488e+01 -8.7868222900844131e+01 -1.1648041479728190e+02 0 0 0
266 11 2 0.0000000000000000e+00 -8.7685133430632476e+00 -9.1820909278009836e+01 -1.2151799671991840e+02 0 0 0
4379 176 4 0.0000000000000000e+00 -8.1964950132253477e+01 -7.9617742184754533e+01 -1.1239008322454769e+02 0 0 0
264 11 2 0.0000000000000000e+00 -2.5581839562187533e+01 -8.6433331522615958e+01 -1.1324393740295751e+02 0 0 0
590 24 2 0.0000000000000000e+00 -9.1790589772238960e+01 -6.9707861461087361e+01 -1.1370654562659799e+02 0 0 0
4378 176 4 0.0000000000000000e+00 -8.2358987578016510e+01 -7.3110127508659858e+01 -1.1973302539935509e+02 0 0 0
3172 127 4 0.0000000000000000e+00 -7.1463951281572733e+01 -6.8856829769736578e+01 -1.2029728910089581e+02 0 0 0
3173 127 4 0.0000000000000000e+00 -6.1363774743753623e+01 -7.0423079982625325e+01 -1.1850193032998497e+02 0 0 0
3174 127 4 0.0000000000000000e+00 -5.1922741689852401e+01 -6.9405365960872928e+01 -1.1556368006317258e+02 0 0 0
1166 47 2 0.0000000000000000e+00 -2.0138885061253301e+01 -6.1843732466044642e+01 -1.1050679899128352e+02 0 0 0
2379 96 2 0.0000000000000000e+00 -1.0555996692956634e+02 -4.9335702863117433e+01 -1.1343767118245796e+02 0 0 0
2378 96 2 0.0000000000000000e+00 -1.0556651834644630e+02 -4.8735504898951923e+01 -1.2348191981167841e+02 0 0 0
589 24 2 0.0000000000000000e+00 -9.2102290697477969e+01 -6.0465105966856562e+01 -1.1873669217487155e+02 0 0 0
588 24 1 0.0000000000000000e+00 -9.2672570744650727e+01 -5.0516630417459332e+01 -1.2036524391605451e+02 0 0 0
587 24 2 0.0000000000000000e+00 -8.8243219657946057e+01 -4.7614844853455999e+01 -1.1195370299124528e+02 0 0 0
2389 96 2 0.0000000000000000e+00 -6.2230993741622207e+01 -5.8945398529308449e+01 -1.2230237627007897e+02 0 0 0
2388 96 1 0.0000000000000000e+00 -5.8045872600723683e+01 -5.2120117992843404e+01 -1.1603139721906231e+02 0 0 0
3175 127 3 0.0000000000000000e+00 -5.2243736209885782e+01 -6.0509375751751627e+01 -1.1128115456954268e+02 0 0 0
1840 74 2 0.0000000000000000e+00 -3.7280059476291555e+01 -4.9387073553183797e+01 -1.2075960002296783e+02 0 0 0
1168 47 2 0.0000000000000000e+00 -3.1074396785533580e+01 -5.9227514360940368e+01 -1.1123488661438907e+02 0 0 0
1839 74 2 0.0000000000000000e+00 -4.0435761199814294e+01 -4.9886192113458087e+01 -1.1136224415120824e+02 0 0 0
1167 47 2 0.0000000000000000e+00 -2.4829863901368572e+01 -5.8707358407800648e+01 -1.1893517720244472e+02 0 0 0
2174 87 2 0.0000000000000000e+00 -9.2202642439697385e+01 -3.9895313695319501e+01 -1.1378244288585995e+02 0 0 0
2173 87 2 0.0000000000000000e+00 -8.6352915453929697e+01 -3.9904737351074651e+01 -1.2184323860285919e+02 0 0 0
3066 123 4 0.0000000000000000e+00 -5.0479288598712174e+01 -4.0040813552020374e+01 -1.1710572688727778e+02 0 0 0
2067 83 2 0.0000000000000000e+00 -9.5002003606619951e+01 -2.2951265631833266e+01 -1.1803913691100706e+02 0 0 0
3155 127 4 0.0000000000000000e+00 -8.1092412025903670e+01 -2.4362711556637873e+01 -1.2052338153132401e+02 0 0 0
3156 127 4 0.0000000000000000e+00 -7.3626061596747519e+01 -2.0182659082832032e+01 -1.1597717314685937e+02 0 0 0
3157 127 3 0.0000000000000000e+00 -6.5085393315807210e+01 -2.1918397740453067e+01 -1.1164584379187566e+02 0 0 0
2170 87 2 0.0000000000000000e+00 -5.8738710114943864e+01 -3.2781480454502535e+01 -1.2116965436899696e+02 0 0 0
3158 127 4 0.0000000000000000e+00 -5.9524719050596715e+01 -3.0600966696095298e+01 -1.1116280425574736e+02 0 0 0
2169 87 1 0.0000000000000000e+00 -5.6134933653760697e+01 -2.3281800217837525e+01 -1.1822092672625359e+02 0 0 0
3159 127 4 0.0000000000000000e+00 -5.0189142668839125e+01 -3.0286394092339897e+01 -1.1469257312739911e+02 0 0 0
2074 83 2 0.0000000000000000e+00 -4.3424414553427617e+01 -2.2701017340726054e+01 -1.1348282525998759e+02 0 0 0
3160 127 4 0.0000000000000000e+00 -4.0253895872968961e+01 -3.1611605638809007e+01 -1.1285918097596654e+02 0 0 0
3161 127 4 0.0000000000000000e+00 -3.1605044506230389e+01 -2.8441443113892952e+01 -1.1725804871964480e+02 0 0 0
1833 74 2 0.0000000000000000e+00 -2.1733852896914755e+01 -2.2043711203763770e+01 -1.1585474292085219e+02 0 0 0
456 19 2 0.0000000000000000e+00 -4.9061426735953457e+00 -2.6873249370559151e+01 -1.2230121286703897e+02 0 0 0
455 19 2 0.0000000000000000e+00 -4.8289247944455491e+00 -2.8019720181552280e+01 -1.1183259457905565e+02 0 0 0
2064 83 2 0.0000000000000000e+00 -9.6838226898068342e+01 -1.1074551019033215e+01 -1.2220001855953456e+02 0 0 0
2068 83 2 0.0000000000000000e+00 -9.2050887737822066e+01 -1.3909831363015467e+01 -1.1408968831839987e+02 0 0 0
2168 87 2 0.0000000000000000e+00 -5.0999156822654406e+01 -1.5388500891124153e+01 -1.1574721752439757e+02 0 0 0
2075 83 1 0.0000000000000000e+00 -3.5619670220242526e+01 -1.9173037921846998e+01 -1.1912203445280302e+02 0 0 0
576 24 1 0.0000000000000000e+00 -4.0338942329875159e+01 -1.3521474628388226e+01 -1.1195613255287158e+02 0 0 0
4786 192 4 0.0000000000000000e+00 -1.1562047892619640e+01 -7.4486307157278944e+00 -1.2268178292363498e+02 0 0 0
4479 180 4 0.0000000000000000e+00 -1.1668194152223234e+02 -1.2261987985923886e+00 -1.1375538656541873e+02 0 0 0
4478 180 4 0.0000000000000000e+00 -1.1738211466779657e+02 4.8627686838465678e+00 -1.2233617594186283e+02 0 0 0
2061 83 2 0.0000000000000000e+00 -1.0678777720769979e+02 3.5813181132916379e+00 -1.1805628078834324e+02 0 0 0
2062 83 2 0.0000000000000000e+00 -1.0247045684054642e+02 -5.0924729459607541e+00 -1.1567672053434941e+02 0 0 0
2063 83 1 0.0000000000000000e+00 -9.3302167170639933e+01 -2.3425500630647358e+00 -1.1981889574518908e+02 0 0 0
4451 179 3 0.0000000000000000e+00 -7.9356641215016367e+01 -4.0648199557564748e+00 -1.1337275722288859e+02 0 0 0
4452 179 4 0.0000000000000000e+00 -7.4451544968489443e+01 -1.3148447775593610e+00 -1.2175861272370030e+02 0 0 0
2057 83 1 0.0000000000000000e+00 -8.0217552512575139e+01 6.2166394961179705e+00 -1.1607462301198824e+02 0 0 0
2166 87 2 0.0000000000000000e+00 -5.7483366532056600e+01 3.7446009507985583e+00 -1.1679129763959013e+02 0 0 0
2167 87 2 0.0000000000000000e+00 -5.4954840266877845e+01 -5.9850575230109087e+00 -1.1730155490570104e+02 0 0 0
2165 87 2 0.0000000000000000e+00 -4.7877222670656025e+01 5.1094304059043356e+00 -1.1377558474228432e+02 0 0 0
3178 128 4 0.0000000000000000e+00 -3.2539954921276205e+01 -2.2336267942913937e+00 -1.1525001816606651e+02 0 0 0
3179 128 4 0.0000000000000000e+00 -2.8312466288813024e+01 3.9471193213655282e+00 -1.2313414712141878e+02 0 0 0
2162 87 2 0.0000000000000000e+00 -2.2139227828153441e+01 4.7728137576629690e+00 -1.1297682248136547e+02 0 0 0
2060 83 2 0.0000000000000000e+00 -1.0216820312176203e+02 1.2763950230716539e+01 -1.1952467540931652e+02 0 0 0
2058 83 2 0.0000000000000000e+00 -8.6830793875342536e+01 7.7764587960575629e+00 -1.2359033179541439e+02 0 0 0
4482 180 3 0.0000000000000000e+00 -9.5248518218203941e+01 7.4457692035590961e+00 -1.1468269517176302e+02 0 0 0
4483 180 4 0.0000000000000000e+00 -9.1280719116796803e+01 1.6182478396325006e+01 -1.1764075002659118e+02 0 0 0
2701 109 3 0.0000000000000000e+00 -7.5084836394492456e+01 1.6364577454851091e+01 -1.1430057743052082e+02 0 0 0
3626 146 3 0.0000000000000000e+00 -4.7524384126996253e+01 1.7816692419972373e+01 -1.1412379004241303e+02 0 0 0
2164 87 2 0.0000000000000000e+00 -3.9306741789601119e+01 9.5266214426843572e+00 -1.1049417243808509e+02 0 0 0
3180 128 4 0.0000000000000000e+00 -2.1357273558750752e+01 1.0688371716115389e+01 -1.2124119046790362e+02 0 0 0
2163 87 1 0.0000000000000000e+00 -2.9368121478305927e+01 1.0120747054660049e+01 -1.1053037383689824e+02 0 0 0
660 27 2 0.0000000000000000e+00 -9.0940401032957663e+00 1.9473286517059751e+01 -1.1629100331836243e+02 0 0 0
661 27 2 0.0000000000000000e+00 -5.9962966138700571e+00 1.1270963743738887e+01 -1.1150185229950718e+02 0 0 0
254 11 2 0.0000000000000000e+00 -6.6330215909024659e+01 -1.3439837605023146e+02 -9.9799569310869359e+01 0 0 0
2399 96 2 0.0000000000000000e+00 -9.5129921506349874e+01 -1.0221938196752960e+02 -1.0027264826594245e+02 0 0 0
2398 96 2 0.0000000000000000e+00 -9.4073939875594974e+01 -9.7811763176540097e+01 -1.0921770227997499e+02 0 0 0
4381 176 4 0.0000000000000000e+00 -7.6819077900143029e+01 -9.6278597740828843e+01 -1.0233288745929957e+02 0 0 0
261 11 2 0.0000000000000000e+00 -4.4462427827986417e+01 -9.8984375572642548e+01 -9.7932517431628568e+01 0 0 0
262 11 2 0.0000000000000000e+00 -3.8449813197874697e+01 -9.2090010029147820e+01 -1.0215869027970619e+02 0 0 0
3530 142 4 0.0000000000000000e+00 -7.7381951836127119e+00 -1.0093119934254690e+02 -1.0733243003965541e+02 0 0 0
4396 176 4 0.0000000000000000e+00 -7.4075684493918130e+00 -9.2627480175133044e+01 -1.0239337826226649e+02 0 0 0
4380 176 4 0.0000000000000000e+00 -7.7508327832793626e+01 -8.6950932041091022e+01 -1.0710199802919466e+02 0 0 0
3080 124 4 0.0000000000000000e+00 -4.6211872444254858e+01 -7.6845670211401000e+01 -1.0560786147389487e+02 0 0 0
3079 124 4 0.0000000000000000e+00 -5.3925643940061086e+01 -8.0889305344529205e+01 -9.9936029080721113e+01 0 0 0
263 11 1 0.0000000000000000e+00 -3.2026804246240744e+01 -8.5020118004424333e+01 -1.0576701851301252e+02 0 0 0
3081 124 4 0.0000000000000000e+00 -3.6431703337554140e+01 -7.4676284320367188e+01 -1.0705063750416319e+02 0 0 0
3082 124 3 0.0000000000000000e+00 -2.7875956517399331e+01 -7.5142805761489115e+01 -1.0172039687282600e+02 0 0 0
4875 195 3 0.0000000000000000e+00 -2.9840946521570597e+00 -8.2419720704484561e+01 -9.9429990913534652e+01 0 0 0
591 24 2 0.0000000000000000e+00 -8.9670877209792963e+01 -7.2859833046731964e+01 -1.0413674382920011e+02 0 0 0
2724 109 4 0.0000000000000000e+00 -4.7940671685277231e+01 -6.2388202554559321e+01 -9.9671724391510779e+01 0 0 0
2725 109 3 0.0000000000000000e+00 -4.2542564233146564e+01 -6.3656501429414291e+01 -1.0768537770451154e+02 0 0 0
1164 47 2 0.0000000000000000e+00 -1.4458471493740186e+01 -7.0776968035266435e+01 -9.7305422056505336e+01 0 0 0
1165 47 2 0.0000000000000000e+00 -1.3042924637911611e+01 -6.2959766456265164e+01 -1.0394458859834080e+02 0 0 0
4873 195 4 0.0000000000000000e+00 -3.5741393549763751e+00 -6.5118890683583388e+01 -1.0852538248219572e+02 0 0 0
586 24 2 0.0000000000000000e+00 -8.2768492794985377e+01 -4.7134302195350287e+01 -1.0381807918589450e+02 0 0 0
2386 96 2 0.0000000000000000e+00 -6.6831270885163590e+01 -4.8795523072806660e+01 -1.0144697586066899e+02 0 0 0
2387 96 2 0.0000000000000000e+00 -5.9226516593047563e+01 -5.2679017037067666e+01 -1.0652388811213343e+02 0 0 0
1169 47 1 0.0000000000000000e+00 -3.5207528952541033e+01 -5.7153387744533575e+01 -1.0238729848964030e+02 0 0 0
2380 96 2 0.0000000000000000e+00 -1.1002237068894355e+02 -4.7066593908714054e+01 -1.0473193315105901e+02 0 0 0
2175 87 1 0.0000000000000000e+00 -9.8985110887403167e+01 -3.7961712281506379e+01 -1.0707676788194260e+02 0 0 0
3995 160 4 0.0000000000000000e+00 -9.2362567249415477e+01 -4.5838119231928083e+01 -1.0029355426693249e+02 0 0 0
3996 160 4 0.0000000000000000e+00 -8.8675915612305829e+01 -3.6491261125684417e+01 -1.0191532919385992e+02 0 0 0
585 24 2 0.0000000000000000e+00 -8.1257575323508831e+01 -3.8228226566513776e+01 -1.0936144821437129e+02 0 0 0
2385 96 2 0.0000000000000000e+00 -7.4656961296366219e+01 -4.5846788974652384e+01 -9.6263719188605478e+01 0 0 0
3068 123 4 0.0000000000000000e+00 -5.4710779279789406e+01 -3.8866784584796463e+01 -9.9041512935310806e+01 0 0 0
3067 123 4 0.0000000000000000e+00 -4.9766708484721391e+01 -3.7328792142241817e+01 -1.0763048734354271e+02 0 0 0
1838 74 1 0.0000000000000000e+00 -3.7048210778420994e+01 -4.4832957028991757e+01 -1.0278981360025195e+02 0 0 0
1837 74 2 0.0000000000000000e+00 -2.9602027453823531e+01 -3.8095952167779139e+01 -1.0453648281812974e+02 0 0 0
4000 160 3 0.0000000000000000e+00 -1.0640664856416589e+02 -2.8857406148360553e+01 -1.0441351714254810e+02 0 0 0
3999 160 4 0.0000000000000000e+00 -1.0096766900088892e+02 -2.1883434416784219e+01 -1.0049595909470939e+02 0 0 0
3997 160 4 0.0000000000000000e+00 -8.7287274141461737e+01 -2.8317398845745373e+01 -9.7323316878522974e+01 0 0 0
584 24 2 0.0000000000000000e+00 -7.4911890319547993e+01 -3.1785150053490565e+01 -1.0733094579986118e+02 0 0 0
583 24 2 0.0000000000000000e+00 -7.1061941153523222e+01 -3.2778761863976932e+01 -9.7883012455893976e+01 0 0 0
2073 83 2 0.0000000000000000e+00 -5.0170910431466453e+01 -2.1211641908487039e+01 -1.0570145141479287e+02 0 0 0
1836 74 2 0.0000000000000000e+00 -2.9253755204156615e+01 -2.8617712449760401e+01 -1.0460673329781061e+02 0 0 0
3998 160 4 0.0000000000000000e+00 -9.0779679401770380e+01 -1.9361495029921315e+01 -9.8796267064316169e+01 0 0 0