LAMMPS data file via write_data, version 5 Jun 2019, timestep = 400000000

5000 atoms
4 atom types
5293 bonds
3 bond types
4600 angles
2 angle types

-2.5000000000000000e+02 2.5000000000000000e+02 xlo xhi
-2.5000000000000000e+02 2.5000000000000000e+02 ylo yhi
-2.5000000000000000e+02 2.5000000000000000e+02 zlo zhi

Masses

1 1000
2 1000
3 1000
4 1000

Pair Coeffs # lj/cut

1 0.18 10
2 0.18 10
3 0.18 10
4 0.18 10

Bond Coeffs # harmonic

1 3 10
2 3 10
3 3 11.22

Angle Coeffs # cosine

1 2
2 2

Atoms # full

4463 179 3 0.0000000000000000e+00 -3.0603738956283394e+01 -5.1875575639266076e+00 -1.8026483508889353e+02 0 0 0
3203 129 4 0.0000000000000000e+00 -2.9329823387860636e+00 -7.3143790921718681e+00 -1.7974420744446198e+02 0 0 0
3271 131 4 0.0000000000000000e+00 -9.0267448094567371e+00 -6.8446687884274766e+01 -1.6769413856824028e+02 0 0 0
3270 131 4 0.0000000000000000e+00 -1.3105249152240180e+01 -5.9555451268524870e+01 -1.6719351885966273e+02 0 0 0
3269 131 3 0.0000000000000000e+00 -1.8233926497492675e+01 -5.1236623163034416e+01 -1.6754561765727061e+02 0 0 0
4460 179 4 0.0000000000000000e+00 -2.5881748781853034e+01 -3.0903967466980017e+01 -1.6732031425627801e+02 0 0 0
3268 131 4 0.0000000000000000e+00 -1.5709166720658626e+01 -4.2007673662945351e+01 -1.6787508740459222e+02 0 0 0
3267 131 4 0.0000000000000000e+00 -9.3541649027375922e+00 -3.4720415577193350e+01 -1.6752185428996654e+02 0 0 0
4461 179 4 0.0000000000000000e+00 -2.7687144727166171e+01 -2.2840024900809293e+01 -1.7330775532609869e+02 0 0 0
3062 123 4 0.0000000000000000e+00 -4.7400461146249427e+01 -9.9284324320867388e+00 -1.6491022708036840e+02 0 0 0
2244 90 1 0.0000000000000000e+00 -3.1205340904040046e+01 -7.3092638297414299e+00 -1.6936976600935085e+02 0 0 0
3061 123 4 0.0000000000000000e+00 -4.4364600243553397e+01 -3.4646521707725046e+00 -1.7233003593844913e+02 0 0 0
4462 179 4 0.0000000000000000e+00 -2.6544129854095768e+01 -1.3922227789805918e+01 -1.7768237232731630e+02 0 0 0
1456 59 2 0.0000000000000000e+00 -1.9993796039867878e+01 -5.7112433792851496e+00 -1.7205949191731690e+02 0 0 0
1457 59 1 0.0000000000000000e+00 -1.6261376947167474e+01 -1.2990925457553582e+01 -1.6544920871320898e+02 0 0 0
3202 129 4 0.0000000000000000e+00 3.9221349698532713e+00 -1.2027794526474086e+01 -1.7412139996941545e+02 0 0 0
3201 129 3 0.0000000000000000e+00 4.1837704569688317e+00 -1.1320713443113165e+01 -1.6421883751211703e+02 0 0 0
457 19 1 0.0000000000000000e+00 1.5394040248257124e+00 -1.4469079713172344e+00 -1.6741788426544741e+02 0 0 0
1846 74 2 0.0000000000000000e+00 6.9206748396916016e+00 -9.9337235758234300e+01 -1.5010061856249979e+02 0 0 0
1847 74 2 0.0000000000000000e+00 1.7087078650708410e+01 -1.0088445158388923e+02 -1.5233339720521789e+02 0 0 0
3273 131 4 0.0000000000000000e+00 -1.9049799963846123e+01 -6.3919099377666100e+01 -1.5288201999383074e+02 0 0 0
3272 131 4 0.0000000000000000e+00 -1.6955980274376564e+01 -6.7645420678250531e+01 -1.6247028809441306e+02 0 0 0
1826 74 1 0.0000000000000000e+00 -2.1911857878343749e+01 -4.6756676864334651e+01 -1.5769085583735546e+02 0 0 0
4458 179 4 0.0000000000000000e+00 -3.3214544988992898e+01 -3.6194190471105365e+01 -1.4991395637135858e+02 0 0 0
4459 179 4 0.0000000000000000e+00 -2.7429062122347119e+01 -3.5386626993829744e+01 -1.5815522677064942e+02 0 0 0
1827 74 2 0.0000000000000000e+00 -1.8657896753180871e+01 -3.7389188661004880e+01 -1.5533448455734143e+02 0 0 0
3265 131 4 0.0000000000000000e+00 -2.7949803190557437e-01 -2.9319800658924599e+01 -1.5519208482585196e+02 0 0 0
275 11 1 0.0000000000000000e+00 -5.9414166080312725e+01 -2.0013848863958895e+01 -1.5766937201451637e+02 0 0 0
274 11 2 0.0000000000000000e+00 -5.5913401941981931e+01 -2.6554112973170522e+01 -1.5125281243614742e+02 0 0 0
3063 123 3 0.0000000000000000e+00 -4.8612930967401816e+01 -1.7534051166959994e+01 -1.5834434064692337e+02 0 0 0
1828 74 2 0.0000000000000000e+00 -2.1647747898884869e+01 -2.8149400914560420e+01 -1.5393266488278201e+02 0 0 0
1829 74 2 0.0000000000000000e+00 -2.4610681044366345e+01 -1.8400599888591572e+01 -1.5506520339919626e+02 0 0 0
3266 131 4 0.0000000000000000e+00 -7.1783190718570218e+00 -2.7201506380570994e+01 -1.6168640668545206e+02 0 0 0
1458 59 2 0.0000000000000000e+00 -8.0311902071206536e+00 -1.6001024959791931e+01 -1.5995280796504372e+02 0 0 0
1459 59 2 0.0000000000000000e+00 -2.1341161631466710e+00 -1.6995306058439851e+01 -1.5175748226849680e+02 0 0 0
2246 90 2 0.0000000000000000e+00 -3.8742902832735325e+01 -1.3027512471714612e+01 -1.5251103614466649e+02 0 0 0
2245 90 2 0.0000000000000000e+00 -3.7783876752313923e+01 -1.1340860549591184e+01 -1.6280839329028424e+02 0 0 0
4776 192 3 0.0000000000000000e+00 -1.8408469606753695e+01 -4.2556915144127245e+00 -1.5716230103865854e+02 0 0 0
4777 192 4 0.0000000000000000e+00 -1.3139027496013567e+01 -1.0924450217085461e+01 -1.5221438658863988e+02 0 0 0
1000 40 1 0.0000000000000000e+00 7.8642786725930192e+00 -1.0427670374588763e+01 -1.5367626926286550e+02 0 0 0
3401 137 3 0.0000000000000000e+00 9.0647745669494584e-01 -1.0483987957730303e+00 -1.5630763467798045e+02 0 0 0
1844 74 1 0.0000000000000000e+00 -8.3559656773022866e+00 -9.4200210821846511e+01 -1.3950978474465339e+02 0 0 0
1845 74 2 0.0000000000000000e+00 -5.8691974522554591e-01 -9.5210764955255726e+01 -1.4554007086954053e+02 0 0 0
1849 74 2 0.0000000000000000e+00 2.1922487080566317e+01 -8.6856775681173744e+01 -1.4324053068523864e+02 0 0 0
3274 131 4 0.0000000000000000e+00 -1.9421818844657984e+01 -5.8532392272269540e+01 -1.4435627902013238e+02 0 0 0
4000 160 3 0.0000000000000000e+00 -9.8643811414700011e+01 -4.4539432623218765e+01 -1.3553533642500173e+02 0 0 0
3275 131 3 0.0000000000000000e+00 -2.2031552605178323e+01 -5.3900698547188156e+01 -1.3564558527614255e+02 0 0 0
2172 87 2 0.0000000000000000e+00 -7.2669620273194795e+01 -4.2273703334821739e+01 -1.3750461347711158e+02 0 0 0
273 11 2 0.0000000000000000e+00 -4.9754594195018186e+01 -3.4323130758836335e+01 -1.4886715702949971e+02 0 0 0
3066 123 4 0.0000000000000000e+00 -5.8415819646048483e+01 -2.9574264126398948e+01 -1.3717766079267756e+02 0 0 0
272 11 2 0.0000000000000000e+00 -4.5913951886653130e+01 -4.1351217657014558e+01 -1.4297154986769377e+02 0 0 0
4457 179 3 0.0000000000000000e+00 -3.4039402702983772e+01 -3.0605192965307619e+01 -1.4212164426092929e+02 0 0 0
3264 131 4 0.0000000000000000e+00 2.9426977707458790e+00 -3.0093379994765677e+01 -1.4509917867549981e+02 0 0 0
3263 131 3 0.0000000000000000e+00 8.6646004637203600e+00 -3.3090409531770597e+01 -1.3770021129272996e+02 0 0 0
55 3 2 0.0000000000000000e+00 2.1253682727707208e+01 -3.5169941630528712e+01 -1.4450790252401828e+02 0 0 0
3065 123 4 0.0000000000000000e+00 -5.4607539210217659e+01 -2.1440546610295609e+01 -1.4039050715227154e+02 0 0 0
3064 123 4 0.0000000000000000e+00 -4.8486447153695970e+01 -2.1132524829801937e+01 -1.4842695162480254e+02 0 0 0
4456 179 4 0.0000000000000000e+00 -4.1498984522426049e+01 -2.5390101939741108e+01 -1.3831191758464686e+02 0 0 0
1831 74 2 0.0000000000000000e+00 -2.6641928551796397e+01 -1.4891645539366078e+01 -1.3720394305816401e+02 0 0 0
4778 192 4 0.0000000000000000e+00 -1.3271572972003653e+01 -1.8465600646611392e+01 -1.4549278631006666e+02 0 0 0
4779 192 4 0.0000000000000000e+00 -9.8964571653820634e+00 -1.5629351212377317e+01 -1.3668954175015651e+02 0 0 0
1461 59 2 0.0000000000000000e+00 -1.6241332668564918e+00 -2.3030992955647740e+01 -1.3507263075858904e+02 0 0 0
1460 59 2 0.0000000000000000e+00 2.4706661048243905e+00 -1.7970481982923218e+01 -1.4296682410683019e+02 0 0 0
2250 90 1 0.0000000000000000e+00 -5.8636756242817185e+01 -2.3228898884561437e+00 -1.3893851558984707e+02 0 0 0
2248 90 2 0.0000000000000000e+00 -4.4863774681787724e+01 -8.5915576669765930e+00 -1.3516278611567412e+02 0 0 0
2247 90 2 0.0000000000000000e+00 -4.2379115294430427e+01 -1.2550493234749785e+01 -1.4384946635345321e+02 0 0 0
1830 74 2 0.0000000000000000e+00 -2.4852464098604973e+01 -1.2347568334313282e+01 -1.4691944534779529e+02 0 0 0
3404 137 4 0.0000000000000000e+00 -1.6370380886170299e+01 -1.6243628839828113e+00 -1.4296265580155503e+02 0 0 0
999 40 2 0.0000000000000000e+00 1.5521657882885783e+01 -7.4255936237071660e+00 -1.4759318793962913e+02 0 0 0
3526 142 3 0.0000000000000000e+00 -1.0023054774406333e+01 -1.0208710793605852e+02 -1.3166659072495696e+02 0 0 0
3527 142 4 0.0000000000000000e+00 -1.2463527696144643e+01 -1.0300253160058912e+02 -1.2176325813844433e+02 0 0 0
1840 74 2 0.0000000000000000e+00 -3.7455268975315320e+01 -8.9014727006187513e+01 -1.2527817719267556e+02 0 0 0
1841 74 2 0.0000000000000000e+00 -2.7916841182523616e+01 -9.3140983921304041e+01 -1.2447774308199348e+02 0 0 0
1842 74 2 0.0000000000000000e+00 -1.8631856002985533e+01 -9.1121387079552306e+01 -1.2377591620825098e+02 0 0 0
1843 74 2 0.0000000000000000e+00 -1.1787596129472526e+01 -8.9820019616033861e+01 -1.3118916456315475e+02 0 0 0
4400 176 3 0.0000000000000000e+00 -2.2018311888444422e+00 -8.7785164246402772e+01 -1.2349409060606737e+02 0 0 0
69 3 1 0.0000000000000000e+00 2.9942504458980155e+00 -9.7317324306895017e+01 -1.2627469355785254e+02 0 0 0
68 3 2 0.0000000000000000e+00 9.3403749606106317e+00 -8.9919566585009264e+01 -1.2847376938783816e+02 0 0 0
3168 127 4 0.0000000000000000e+00 -9.8222698432294749e+01 -7.1731069296465975e+01 -1.2320701760520222e+02 0 0 0
4399 176 4 0.0000000000000000e+00 -1.1066464268429252e+01 -8.3766939107367747e+01 -1.2237747669999054e+02 0 0 0
2779 112 4 0.0000000000000000e+00 1.1351122396304827e+01 -7.2407552077297680e+01 -1.2308921627474740e+02 0 0 0
67 3 2 0.0000000000000000e+00 1.1746976660748429e+01 -8.0859798983403593e+01 -1.3203991189235902e+02 0 0 0
66 3 2 0.0000000000000000e+00 1.4889892957112485e+01 -7.1281832746316113e+01 -1.3230676475892480e+02 0 0 0
2778 112 4 0.0000000000000000e+00 1.5287695694162956e+01 -8.1606669862982372e+01 -1.2127048131122069e+02 0 0 0
3167 127 4 0.0000000000000000e+00 -1.0614013382550004e+02 -6.5107905379374671e+01 -1.2378353354752082e+02 0 0 0
586 24 2 0.0000000000000000e+00 -8.6998595290058248e+01 -6.0202298885079067e+01 -1.2085532739143328e+02 0 0 0
268 11 2 0.0000000000000000e+00 -2.2372149136279965e+01 -6.0136948212451266e+01 -1.2836838585885320e+02 0 0 0
65 3 2 0.0000000000000000e+00 1.0184489698385210e+01 -6.2329220021693018e+01 -1.3225149832916443e+02 0 0 0
2175 87 1 0.0000000000000000e+00 -1.0023633538995016e+02 -5.2869278436479398e+01 -1.2818408877259890e+02 0 0 0
2174 87 2 0.0000000000000000e+00 -9.0400418956434152e+01 -5.0122884089790340e+01 -1.2969574043882130e+02 0 0 0
2173 87 2 0.0000000000000000e+00 -8.1253977667338958e+01 -4.7519973966602954e+01 -1.3334797435556780e+02 0 0 0
271 11 2 0.0000000000000000e+00 -4.5120489116827919e+01 -4.4664664551399788e+01 -1.3374990502073754e+02 0 0 0
270 11 2 0.0000000000000000e+00 -3.6330103848762143e+01 -4.6893934375269914e+01 -1.2923383691044992e+02 0 0 0
1835 74 2 0.0000000000000000e+00 -4.3861722373766007e+01 -4.6035474713495809e+01 -1.2174057973874804e+02 0 0 0
269 11 1 0.0000000000000000e+00 -2.7474816197042788e+01 -5.1216831726411755e+01 -1.2671280379282527e+02 0 0 0
64 3 2 0.0000000000000000e+00 1.7067842504670928e+01 -5.4750753492106824e+01 -1.3343162535163358e+02 0 0 0
1465 59 2 0.0000000000000000e+00 1.7978611284215468e+01 -4.7749985061033243e+01 -1.2251667124400697e+02 0 0 0
3998 160 4 0.0000000000000000e+00 -1.0978622729135201e+02 -3.5320337062953492e+01 -1.2181823914310706e+02 0 0 0
3999 160 4 0.0000000000000000e+00 -1.0450848076034936e+02 -4.0611169922239100e+01 -1.2816852344627330e+02 0 0 0
3154 127 4 0.0000000000000000e+00 -8.3021138609259950e+01 -3.1839541749826967e+01 -1.3354888770457234e+02 0 0 0
3155 127 4 0.0000000000000000e+00 -7.9538285203163042e+01 -3.5989356698023215e+01 -1.2455001694114466e+02 0 0 0
2171 87 2 0.0000000000000000e+00 -7.1774534096218858e+01 -3.3872054739450505e+01 -1.3143738043058929e+02 0 0 0
2170 87 2 0.0000000000000000e+00 -6.6184647106154401e+01 -3.0204798339203826e+01 -1.2353485788878724e+02 0 0 0
3067 123 4 0.0000000000000000e+00 -5.6956981719317355e+01 -3.5160504399728481e+01 -1.2948768970515238e+02 0 0 0
3068 123 4 0.0000000000000000e+00 -5.6313247834612504e+01 -3.9965827144404500e+01 -1.2097737940405861e+02 0 0 0
1834 74 2 0.0000000000000000e+00 -4.1956732191201439e+01 -3.6867908951287127e+01 -1.2469975913882821e+02 0 0 0
1833 74 2 0.0000000000000000e+00 -3.4939468876793718e+01 -3.1473688184625644e+01 -1.2898954806871194e+02 0 0 0
1462 59 2 0.0000000000000000e+00 -3.9322820228271360e+00 -3.1945347492519989e+01 -1.3111064984205737e+02 0 0 0
1463 59 1 0.0000000000000000e+00 3.0785046776863534e+00 -3.9115267248801310e+01 -1.2985192142787577e+02 0 0 0
1464 59 2 0.0000000000000000e+00 1.2303395865605333e+01 -4.1361948066362672e+01 -1.2740634371433022e+02 0 0 0
2790 112 4 0.0000000000000000e+00 2.2404476037389461e+01 -3.2489318161520181e+01 -1.2371868582266636e+02 0 0 0
2376 96 1 0.0000000000000000e+00 -1.0259701747488299e+02 -1.9618469362371588e+01 -1.2408350600316427e+02 0 0 0
3153 127 4 0.0000000000000000e+00 -8.9919830076461622e+01 -2.4437927151169543e+01 -1.3207382560403198e+02 0 0 0
3152 127 4 0.0000000000000000e+00 -9.4303114901138088e+01 -2.6374553124881793e+01 -1.2350465000197687e+02 0 0 0
4455 179 4 0.0000000000000000e+00 -4.5728657114610712e+01 -1.8263895255195500e+01 -1.3242913997315927e+02 0 0 0
1832 74 1 0.0000000000000000e+00 -3.0262353601002019e+01 -2.3765042085528052e+01 -1.3392406962629099e+02 0 0 0
3262 131 4 0.0000000000000000e+00 1.1379424650421035e+01 -2.6598560943223458e+01 -1.3084125263833170e+02 0 0 0
3261 131 4 0.0000000000000000e+00 1.3581534128111732e+01 -2.0474349402431898e+01 -1.2318753477318984e+02 0 0 0
4454 179 4 0.0000000000000000e+00 -5.0263416866525937e+01 -1.2844075319099526e+01 -1.2546042633163218e+02 0 0 0
2249 90 2 0.0000000000000000e+00 -5.2820229154183153e+01 -5.1166068489968541e+00 -1.3072135660239843e+02 0 0 0
4780 192 4 0.0000000000000000e+00 -9.5541851325831484e+00 -7.4625317117191328e+00 -1.3103534540632000e+02 0 0 0
3179 128 4 0.0000000000000000e+00 -1.4765857290652400e+01 -6.0083532511348725e+00 -1.2302395563191918e+02 0 0 0
4781 192 4 0.0000000000000000e+00 -6.1748898738651459e-01 -5.8033411515533642e+00 -1.2692912240618142e+02 0 0 0
4782 192 3 0.0000000000000000e+00 7.0668725813888109e+00 -3.9890696571757145e+00 -1.2094734802114978e+02 0 0 0
4151 167 3 0.0000000000000000e+00 -1.0333389420219693e+02 -1.2018625300137467e+02 -1.1044553186420939e+02 0 0 0
4152 167 4 0.0000000000000000e+00 -1.1238243795275578e+02 -1.1613942997038686e+02 -1.0733502756733063e+02 0 0 0
3528 142 4 0.0000000000000000e+00 -1.0705119341742860e+01 -9.9540424752159822e+01 -1.1249344872862976e+02 0 0 0
71 3 2 0.0000000000000000e+00 4.7734700006666131e-01 -1.0688830335042559e+02 -1.0984097431304544e+02 0 0 0
70 3 2 0.0000000000000000e+00 3.1209114104365732e+00 -1.0474838796019529e+02 -1.1956556730192439e+02 0 0 0
4396 176 4 0.0000000000000000e+00 -3.1993165522202631e+01 -8.9274674342127042e+01 -1.1678439521641808e+02 0 0 0
4395 176 4 0.0000000000000000e+00 -4.0219694667704744e+01 -8.8161328779723050e+01 -1.1137270743593658e+02 0 0 0
2777 112 4 0.0000000000000000e+00 2.0708140963139694e+01 -8.9872568848207592e+01 -1.1891065275856747e+02 0 0 0
3169 127 3 0.0000000000000000e+00 -9.4261428755157354e+01 -7.1033179173891568e+01 -1.1411842812588203e+02 0 0 0
3170 127 4 0.0000000000000000e+00 -8.6256400414772074e+01 -7.2923578822958717e+01 -1.0792427975724341e+02 0 0 0
1838 74 1 0.0000000000000000e+00 -4.1672775987243867e+01 -7.4407828621280217e+01 -1.1285584282194273e+02 0 0 0
1839 74 2 0.0000000000000000e+00 -4.0364455625020128e+01 -8.0955920426796240e+01 -1.2061544657998624e+02 0 0 0
265 11 2 0.0000000000000000e+00 -3.2169516843422223e+01 -7.1247758294459231e+01 -1.1129687830945728e+02 0 0 0
266 11 2 0.0000000000000000e+00 -2.5738287947469182e+01 -7.0420663221288819e+01 -1.1868472137657734e+02 0 0 0
4397 176 4 0.0000000000000000e+00 -2.5508299345810961e+01 -8.1587161287914540e+01 -1.1501659888019935e+02 0 0 0
4398 176 4 0.0000000000000000e+00 -1.6031403807278846e+01 -7.9091291781433540e+01 -1.1538974791306788e+02 0 0 0
3166 127 4 0.0000000000000000e+00 -1.0988890699014006e+02 -6.7360919734978964e+01 -1.1488172964930473e+02 0 0 0
3165 127 4 0.0000000000000000e+00 -1.0882413032078121e+02 -6.0150330346407344e+01 -1.0741355472562567e+02 0 0 0
589 24 2 0.0000000000000000e+00 -1.0272050488605829e+02 -6.8555690166686148e+01 -1.0714532380177033e+02 0 0 0
588 24 1 0.0000000000000000e+00 -9.8563801916237949e+01 -6.1635427441750380e+01 -1.1218616144623925e+02 0 0 0
585 24 2 0.0000000000000000e+00 -7.7606427488460568e+01 -5.6891719887806026e+01 -1.1883516147726209e+02 0 0 0
584 24 2 0.0000000000000000e+00 -6.9413911625652332e+01 -5.6634739475821043e+01 -1.1393427259820102e+02 0 0 0
1837 74 2 0.0000000000000000e+00 -4.2265540185503006e+01 -6.3919891718583735e+01 -1.1259195488674528e+02 0 0 0
267 11 2 0.0000000000000000e+00 -2.1185702829654591e+01 -6.1492097976283112e+01 -1.1818453904565480e+02 0 0 0
2780 112 4 0.0000000000000000e+00 1.4853701630517701e+01 -6.3931640128950320e+01 -1.1979705211414691e+02 0 0 0
587 24 2 0.0000000000000000e+00 -9.5304243387609546e+01 -5.4557781974054492e+01 -1.1887385167504425e+02 0 0 0
2075 83 1 0.0000000000000000e+00 -9.4040824862728201e+01 -4.6687101814969914e+01 -1.1112411336352099e+02 0 0 0
3070 123 4 0.0000000000000000e+00 -4.6841922941966494e+01 -4.5420539894668288e+01 -1.0708182124070525e+02 0 0 0
3069 123 3 0.0000000000000000e+00 -5.3974746920943829e+01 -4.6522194743431214e+01 -1.1460559741221375e+02 0 0 0
1836 74 2 0.0000000000000000e+00 -4.4788764989162914e+01 -5.5269106876377613e+01 -1.1738701044232020e+02 0 0 0
1164 47 2 0.0000000000000000e+00 -2.3974922393775230e+01 -4.9745686923817303e+01 -1.0881509211666121e+02 0 0 0
576 24 1 0.0000000000000000e+00 -1.4187770226887448e+01 -4.3018201716600693e+01 -1.1341443462108086e+02 0 0 0
2074 83 2 0.0000000000000000e+00 -8.8746919391318301e+01 -3.8513961867512705e+01 -1.0835304860769426e+02 0 0 0
2073 83 2 0.0000000000000000e+00 -8.6898452913834532e+01 -2.9283051081927756e+01 -1.1229369465461758e+02 0 0 0
3156 127 4 0.0000000000000000e+00 -7.7459187177889092e+01 -3.5476312532756225e+01 -1.1495714244413006e+02 0 0 0
3157 127 3 0.0000000000000000e+00 -7.3659853687831159e+01 -2.8937380906638861e+01 -1.0851118015703113e+02 0 0 0
581 24 2 0.0000000000000000e+00 -5.6492161247381866e+01 -3.6177314912292331e+01 -1.1102893152252084e+02 0 0 0
580 24 2 0.0000000000000000e+00 -4.9026918572057582e+01 -2.9595283848546963e+01 -1.1073642745461406e+02 0 0 0
579 24 2 0.0000000000000000e+00 -4.0150804431123255e+01 -3.0865825950785524e+01 -1.1534987965346696e+02 0 0 0
578 24 2 0.0000000000000000e+00 -2.9288988967209715e+01 -3.1041886677649430e+01 -1.1577276450298702e+02 0 0 0
577 24 2 0.0000000000000000e+00 -2.1816253569391964e+01 -3.8126162498281801e+01 -1.1784301934709154e+02 0 0 0
1166 47 2 0.0000000000000000e+00 -2.3112107751501071e+01 -3.0538780972611701e+01 -1.0703642339929991e+02 0 0 0
1165 47 2 0.0000000000000000e+00 -2.0223221212975954e+01 -4.0373198788805830e+01 -1.0723555317343413e+02 0 0 0
3176 128 3 0.0000000000000000e+00 -1.0276230377732743e+01 -3.3341990755535008e+01 -1.1140518877694900e+02 0 0 0
3258 131 4 0.0000000000000000e+00 2.1808365119937715e+01 -3.0448617076066718e+01 -1.0949862744362170e+02 0 0 0
3997 160 4 0.0000000000000000e+00 -1.1112256766737670e+02 -2.5852565189846914e+01 -1.1864866086564834e+02 0 0 0
3996 160 4 0.0000000000000000e+00 -1.0848719853341935e+02 -1.6702767235108812e+01 -1.1559144381713682e+02 0 0 0
3151 127 3 0.0000000000000000e+00 -1.0027323133459254e+02 -2.6046312374864652e+01 -1.1450603472133929e+02 0 0 0
2377 96 2 0.0000000000000000e+00 -9.4050856679123740e+01 -1.7728519450898617e+01 -1.1911355909623489e+02 0 0 0
2378 96 2 0.0000000000000000e+00 -9.0088301995738021e+01 -1.7588362116958308e+01 -1.0997973593715287e+02 0 0 0
2072 83 2 0.0000000000000000e+00 -8.3010775445584784e+01 -2.1079544024411447e+01 -1.1586336998594926e+02 0 0 0
2071 83 2 0.0000000000000000e+00 -7.4135850475258110e+01 -1.7860536662001238e+01 -1.1935304345897988e+02 0 0 0
2169 87 1 0.0000000000000000e+00 -6.4211017694367726e+01 -2.8605582801529657e+01 -1.1404442714488000e+02 0 0 0
2168 87 2 0.0000000000000000e+00 -5.7410303662957908e+01 -2.1933716197754613e+01 -1.1494692045585826e+02 0 0 0
2167 87 2 0.0000000000000000e+00 -4.9119373321989322e+01 -1.6155811636197111e+01 -1.1348910822050954e+02 0 0 0
2155 87 2 0.0000000000000000e+00 -2.2410160725399880e+01 -1.8526517576118174e+01 -1.0886574657129123e+02 0 0 0
3178 128 4 0.0000000000000000e+00 -1.1078681534767393e+01 -1.5171894939417308e+01 -1.1963722878190713e+02 0 0 0
3177 128 4 0.0000000000000000e+00 -1.2339965239812456e+01 -2.4806645707619925e+01 -1.1579026218437841e+02 0 0 0
2792 112 4 0.0000000000000000e+00 8.9830796493583858e+00 -2.2089286753097070e+01 -1.1240115104055327e+02 0 0 0
2791 112 4 0.0000000000000000e+00 1.5052227304089712e+01 -2.8572498602582609e+01 -1.1771723895728009e+02 0 0 0
3259 131 4 0.0000000000000000e+00 1.9451732334381592e+01 -2.0988605198876552e+01 -1.1157781698954817e+02 0 0 0
2070 83 2 0.0000000000000000e+00 -7.1342964014295745e+01 -7.8040779115824987e+00 -1.1928946712034669e+02 0 0 0
4453 179 4 0.0000000000000000e+00 -5.5834597883260507e+01 -6.8882834133401225e+00 -1.1893549992645382e+02 0 0 0
2166 87 2 0.0000000000000000e+00 -4.3640500142969209e+01 -8.8812959974205246e+00 -1.1719767800475000e+02 0 0 0
2165 87 2 0.0000000000000000e+00 -3.3539388241002406e+01 -8.3341619945578973e+00 -1.1645035058733852e+02 0 0 0
2164 87 2 0.0000000000000000e+00 -3.5454431876822774e+01 -4.2749833480954713e+00 -1.0716494481720672e+02 0 0 0
2154 87 2 0.0000000000000000e+00 -1.4767438032997159e+01 -1.2234016042849424e+01 -1.0732463565934208e+02 0 0 0
2153 87 2 0.0000000000000000e+00 -5.3053124617518570e+00 -1.0563243264461439e+01 -1.0864227626785951e+02 0 0 0
3260 131 4 0.0000000000000000e+00 1.8977814283238587e+01 -1.3430172449683205e+01 -1.1821701733759473e+02 0 0 0
2793 112 4 0.0000000000000000e+00 1.2920032732513825e+01 -1.3928781279062900e+01 -1.0804565407884841e+02 0 0 0
4154 167 4 0.0000000000000000e+00 -1.2059498233732882e+02 -1.1234555684286138e+02 -9.2642921221428054e+01 0 0 0
251 11 1 0.0000000000000000e+00 -1.0658689617245633e+02 -1.2104026553960679e+02 -1.0037050892469261e+02 0 0 0
4153 167 4 0.0000000000000000e+00 -1.1633401186425586e+02 -1.0952709438810393e+02 -1.0078768287501600e+02 0 0 0
72 3 2 0.0000000000000000e+00 1.7643541594015777e+00 -1.0248185234840933e+02 -1.0128877640442528e+02 0 0 0
4376 176 3 0.0000000000000000e+00 -1.1750740283043838e+02 -9.4917792039195518e+01 -9.7464657125407854e+01 0 0 0
4377 176 4 0.0000000000000000e+00 -1.2448612160389409e+02 -8.7159446927101030e+01 -9.6419280813822141e+01 0 0 0
257 11 1 0.0000000000000000e+00 -7.8971885315739257e+01 -8.6250271639039170e+01 -9.7764385684333860e+01 0 0 0
3529 142 4 0.0000000000000000e+00 -8.5544107118452573e+00 -9.6566747553282781e+01 -1.0347062064775321e+02 0 0 0
3530 142 4 0.0000000000000000e+00 -1.0357788920035434e+01 -9.3529954372930064e+01 -9.4290609108834516e+01 0 0 0
4378 176 4 0.0000000000000000e+00 -1.2656895192133375e+02 -7.7490997657165750e+01 -9.4269435742115931e+01 0 0 0
590 24 2 0.0000000000000000e+00 -1.0565926299025283e+02 -7.0835595898756992e+01 -9.7991994236964103e+01 0 0 0
3171 127 4 0.0000000000000000e+00 -8.6695268899195611e+01 -7.4108938539651689e+01 -9.8102458998047993e+01 0 0 0
258 11 2 0.0000000000000000e+00 -7.7655204899522843e+01 -7.6603981002960495e+01 -1.0034962539942440e+02 0 0 0
4392 176 4 0.0000000000000000e+00 -6.0155036568196422e+01 -7.5998910999029604e+01 -9.3027018534494559e+01 0 0 0
4394 176 3 0.0000000000000000e+00 -4.6814911864627263e+01 -8.2167891564964748e+01 -1.0592556614572659e+02 0 0 0
4393 176 4 0.0000000000000000e+00 -5.4514576381370716e+01 -7.9477294993478964e+01 -1.0035015420631531e+02 0 0 0
264 11 2 0.0000000000000000e+00 -3.8556127478619693e+01 -7.2040098973304154e+01 -1.0331115870695609e+02 0 0 0
2491 100 2 0.0000000000000000e+00 2.3314463398401866e+01 -8.1294039424216351e+01 -9.8063321976476445e+01 0 0 0
591 24 2 0.0000000000000000e+00 -1.0185960550260121e+02 -6.3417625049247995e+01 -9.2316515925694006e+01 0 0 0
259 11 2 0.0000000000000000e+00 -7.6036201945232207e+01 -6.7147904537332764e+01 -9.7958563146112041e+01 0 0 0
260 11 2 0.0000000000000000e+00 -7.2647580868489356e+01 -5.8876691123963973e+01 -9.3317455754992906e+01 0 0 0
261 11 2 0.0000000000000000e+00 -6.2617930435685643e+01 -5.7315946754242617e+01 -9.3248701716693503e+01 0 0 0
262 11 2 0.0000000000000000e+00 -5.3929644281388569e+01 -6.1039035316248004e+01 -9.8070199652437282e+01 0 0 0
263 11 1 0.0000000000000000e+00 -4.6327162320848615e+01 -6.6798287726325995e+01 -1.0006737341413147e+02 0 0 0
1162 47 2 0.0000000000000000e+00 -2.1034896240180995e+01 -5.8955594744672325e+01 -9.4269432174904040e+01 0 0 0
3164 127 4 0.0000000000000000e+00 -1.0720256139778134e+02 -5.2488994912290948e+01 -1.0125035083234418e+02 0 0 0
3163 127 3 0.0000000000000000e+00 -1.0123170640263849e+02 -4.4599706679975007e+01 -1.0264831448567078e+02 0 0 0
583 24 2 0.0000000000000000e+00 -6.5383990644472874e+01 -5.1358059242995758e+01 -1.0615700276816793e+02 0 0 0
582 24 1 0.0000000000000000e+00 -5.9270377020501520e+01 -4.4003257656713842e+01 -1.0503841102618462e+02 0 0 0
3071 123 4 0.0000000000000000e+00 -4.7512476271495117e+01 -4.4396468998487002e+01 -9.6912074182910075e+01 0 0 0
3084 124 4 0.0000000000000000e+00 -3.5477119751776847e+01 -5.4080154042645866e+01 -9.3724317208174156e+01 0 0 0
3085 124 4 0.0000000000000000e+00 -2.8307007843474608e+01 -4.7945234167197846e+01 -9.6005773436604684e+01 0 0 0
1163 47 1 0.0000000000000000e+00 -1.9050286926427443e+01 -5.1313076732202695e+01 -1.0005905725101479e+02 0 0 0
4869 195 3 0.0000000000000000e+00 -1.0018287375157957e+01 -4.8944840632820913e+01 -9.4762278459396967e+01 0 0 0
4870 195 4 0.0000000000000000e+00 -5.2599545408263930e+00 -4.3869833817031193e+01 -1.0173613736437513e+02 0 0 0
3162 127 4 0.0000000000000000e+00 -9.5266414345784767e+01 -4.1610963688744576e+01 -9.5366052256336971e+01 0 0 0
3158 127 4 0.0000000000000000e+00 -7.5806638807841210e+01 -3.1354576989642446e+01 -9.8650492010087646e+01 0 0 0
1168 47 2 0.0000000000000000e+00 -4.0456017571399734e+01 -2.9323100212996856e+01 -9.7858620478258587e+01 0 0 0
4871 195 4 0.0000000000000000e+00 2.7863963115624495e+00 -3.8897970454956258e+01 -1.0457505026038550e+02 0 0 0
3092 124 4 0.0000000000000000e+00 1.8304706793224417e+00 -2.8828739653533709e+01 -1.0220396838034110e+02 0 0 0
4873 195 4 0.0000000000000000e+00 2.0878814060139891e+01 -4.0482048864927641e+01 -1.0103350423847468e+02 0 0 0
4872 195 4 0.0000000000000000e+00 1.2707339726869604e+01 -3.8564683067832327e+01 -1.0626696296765938e+02 0 0 0
3094 124 3 0.0000000000000000e+00 1.9297789438272176e+01 -3.2088384669877250e+01 -9.7501049623889330e+01 0 0 0
3995 160 4 0.0000000000000000e+00 -1.1224128313139624e+02 -1.8804377243932866e+01 -1.0612984858649529e+02 0 0 0
3994 160 3 0.0000000000000000e+00 -1.1254156363307087e+02 -1.5449232891292244e+01 -9.6664202882003451e+01 0 0 0
2724 109 4 0.0000000000000000e+00 -5.6247531858097169e+01 -1.5966283367648970e+01 -9.3950377875608524e+01 0 0 0
1167 47 2 0.0000000000000000e+00 -3.1213573637737209e+01 -2.7667010147875022e+01 -1.0191077199584146e+02 0 0 0
1169 47 1 0.0000000000000000e+00 -4.2942957577820479e+01 -2.1353499939887627e+01 -9.2796895291547315e+01 0 0 0
3089 124 4 0.0000000000000000e+00 -2.1367949963388039e+01 -2.0337780052581202e+01 -9.2127486772604726e+01 0 0 0
3091 124 4 0.0000000000000000e+00 -7.0702532134059828e+00 -2.4880563103521681e+01 -1.0314307714546426e+02 0 0 0
3090 124 4 0.0000000000000000e+00 -1.5713330588053330e+01 -2.2839476765156427e+01 -9.9609711864709382e+01 0 0 0
2151 87 1 0.0000000000000000e+00 8.0966531540490845e+00 -1.5957658873671839e+01 -9.8126630262378328e+01 0 0 0
3093 124 4 0.0000000000000000e+00 1.1550134985646103e+01 -2.7416583429866616e+01 -1.0242391687113371e+02 0 0 0
2381 96 2 0.0000000000000000e+00 -1.0757011008966913e+02 -4.2554911597611396e+00 -1.0212057345833129e+02 0 0 0
2380 96 2 0.0000000000000000e+00 -9.9505535283929092e+01 -1.0387941562188329e+01 -1.0311473056098536e+02 0 0 0
2382 96 1 0.0000000000000000e+00 -1.0813499179419308e+02 -5.7489677874493230e+00 -9.2021107143893630e+01 0 0 0
2379 96 2 0.0000000000000000e+00 -8.9777716603540810e+01 -1.3019440692130036e+01 -1.0102705265102495e+02 0 0 0
2723 109 4 0.0000000000000000e+00 -6.2506824061793836e+01 -8.6903689142943605e+00 -9.2543561904907989e+01 0 0 0
2157 87 1 0.0000000000000000e+00 -3.4308912414511703e+01 -1.3101614620350148e+01 -9.4917976886684386e+01 0 0 0
2156 87 2 0.0000000000000000e+00 -2.6282860726591927e+01 -1.4640312252416798e+01 -1.0047067706658311e+02 0 0 0
2152 87 2 0.0000000000000000e+00 2.2960532726847753e+00 -9.7627440146338866e+00 -1.0286804115783363e+02 0 0 0
2794 112 3 0.0000000000000000e+00 1.1015869766041710e+01 -5.6096002428126797e+00 -1.0240062271504900e+02 0 0 0
2809 113 4 0.0000000000000000e+00 2.0241520732265709e+01 -1.0379957195550725e+01 -9.7662499529489054e+01 0 0 0
2810 113 4 0.0000000000000000e+00 1.4453880230592162e+01 -4.3099876197651437e+00 -9.2701521976166433e+01 0 0 0
2398 96 2 0.0000000000000000e+00 -1.1853944348277969e+02 -1.2699081483317789e+02 -8.6261013574914926e+01 0 0 0
2396 96 2 0.0000000000000000e+00 -1.2932347242943945e+02 -1.1238098995858505e+02 -8.3850179238958816e+01 0 0 0
2397 96 2 0.0000000000000000e+00 -1.2761988244848627e+02 -1.2211923233181015e+02 -8.6869611264554578e+01 0 0 0
4155 167 4 0.0000000000000000e+00 -1.1934607465392305e+02 -1.1421051441828556e+02 -8.2619264883498687e+01 0 0 0
2399 96 2 0.0000000000000000e+00 -1.1154023793514266e+02 -1.2530204647876577e+02 -7.9426670715242125e+01 0 0 0
252 11 2 0.0000000000000000e+00 -1.0279826654242777e+02 -1.1998094752978076e+02 -9.1011909899318994e+01 0 0 0
253 11 2 0.0000000000000000e+00 -9.3895705515154020e+01 -1.1473907162872761e+02 -8.9016236562236060e+01 0 0 0