LAMMPS data file via write_data, version 5 Jun 2019, timestep = 400000000

5000 atoms
4 atom types
5288 bonds
3 bond types
4600 angles
2 angle types

-2.5000000000000000e+02 2.5000000000000000e+02 xlo xhi
-2.5000000000000000e+02 2.5000000000000000e+02 ylo yhi
-2.5000000000000000e+02 2.5000000000000000e+02 zlo zhi

Masses

1 1000
2 1000
3 1000
4 1000

Pair Coeffs # lj/cut

1 0.18 10
2 0.18 10
3 0.18 10
4 0.18 10

Bond Coeffs # harmonic

1 3 10
2 3 10
3 3 11.22

Angle Coeffs # cosine

1 2
2 2

Atoms # full

1850 74 1 0.0000000000000000e+00 -3.7637402765076288e+01 -3.4252620020659137e+01 -2.0788218600301371e+02 0 0 0
4776 192 3 0.0000000000000000e+00 -2.8129856596065835e+01 -2.7485242341237207e+01 -2.0871387755575202e+02 0 0 0
4466 179 4 0.0000000000000000e+00 1.1577860056417833e+01 1.1709959273535326e+01 -2.1389213785773518e+02 0 0 0
4467 179 4 0.0000000000000000e+00 1.0915898113270774e+01 2.1608092455468189e+01 -2.1078271751900641e+02 0 0 0
1849 74 2 0.0000000000000000e+00 -3.1097070448145548e+01 -3.3270706991860521e+01 -2.0057712284256090e+02 0 0 0
4777 192 4 0.0000000000000000e+00 -2.0899105163852187e+01 -2.6843144637742782e+01 -2.0216036611026519e+02 0 0 0
4778 192 4 0.0000000000000000e+00 -1.1967772052518249e+01 -2.3537881823059166e+01 -1.9801873089212671e+02 0 0 0
4779 192 4 0.0000000000000000e+00 -2.7621070196504203e+00 -2.0941109132400506e+01 -1.9930609630118434e+02 0 0 0
4780 192 4 0.0000000000000000e+00 3.7193639596774877e+00 -1.5136212119193331e+01 -1.9508133420306729e+02 0 0 0
1457 59 1 0.0000000000000000e+00 1.6161707506785113e+01 -7.4901106306236862e+00 -1.9404643228664676e+02 0 0 0
4465 179 4 0.0000000000000000e+00 1.1060293178924244e+01 6.0382225354895445e+00 -2.0543661549611124e+02 0 0 0
1456 59 2 0.0000000000000000e+00 1.5510999414644983e+01 -1.7375492955344272e+00 -2.0173393774437858e+02 0 0 0
1455 59 2 0.0000000000000000e+00 2.1500521024835315e+01 6.0549595789390809e+00 -2.0485409436743171e+02 0 0 0
4464 179 4 0.0000000000000000e+00 1.2619416427155599e+01 8.2913323455262180e+00 -1.9542120926252576e+02 0 0 0
1453 59 2 0.0000000000000000e+00 7.8846658896942694e+00 1.7073483469906645e+01 -1.9795630858726713e+02 0 0 0
1454 59 2 0.0000000000000000e+00 1.6086149819295027e+01 1.4272517664062475e+01 -2.0290545019615291e+02 0 0 0
1848 74 2 0.0000000000000000e+00 -2.4353352560481145e+01 -3.3785590574088118e+01 -1.9286226633501036e+02 0 0 0
1847 74 2 0.0000000000000000e+00 -1.7032931587635890e+01 -3.2239596827613589e+01 -1.8612228941507479e+02 0 0 0
4781 192 4 0.0000000000000000e+00 6.4599494520293499e+00 -7.4230462776759909e+00 -1.8964325306438920e+02 0 0 0
1458 59 2 0.0000000000000000e+00 1.5706065612307816e+01 -1.3204594673828886e+01 -1.8557759271711626e+02 0 0 0
4462 179 4 0.0000000000000000e+00 4.0950502041830156e-01 3.9943127728237022e+00 -1.8178899758912371e+02 0 0 0
4782 192 3 0.0000000000000000e+00 1.2402464369200578e+01 -6.8843253560790740e-01 -1.8548815821044968e+02 0 0 0
3067 123 4 0.0000000000000000e+00 -3.4687246206091963e+01 1.8896302619982787e+01 -1.8166521592528883e+02 0 0 0
3066 123 4 0.0000000000000000e+00 -2.8773707640324119e+01 2.1659687995791277e+01 -1.8913116926609200e+02 0 0 0
1452 59 2 0.0000000000000000e+00 1.0658224574285369e+00 1.9124276163557870e+01 -1.9158566383174201e+02 0 0 0
4463 179 3 0.0000000000000000e+00 5.9428415046727041e+00 9.3002464539620622e+00 -1.8821442537735203e+02 0 0 0
2244 90 1 0.0000000000000000e+00 1.0595439813125060e+01 1.8942893727335875e+01 -1.8688218416078456e+02 0 0 0
407 17 1 0.0000000000000000e+00 3.2357558049936003e+01 2.0806005077969459e+01 -1.8632112879487309e+02 0 0 0
3268 131 4 0.0000000000000000e+00 1.9968218409004223e+01 -4.1346820294519247e+01 -1.7268203569109855e+02 0 0 0
3267 131 4 0.0000000000000000e+00 2.6246195347079340e+01 -3.7581286992641850e+01 -1.7953937089205925e+02 0 0 0
3266 131 4 0.0000000000000000e+00 3.0405216464814657e+01 -3.7775493203115097e+01 -1.7023417950896396e+02 0 0 0
1846 74 2 0.0000000000000000e+00 -1.8203411213953466e+01 -2.5910858189791927e+01 -1.7788730807822336e+02 0 0 0
1845 74 2 0.0000000000000000e+00 -2.0352975711291677e+01 -2.5866814121057924e+01 -1.6774270569685015e+02 0 0 0
1460 59 2 0.0000000000000000e+00 1.8324763811028266e+01 -2.1658182119321726e+01 -1.6833012419880319e+02 0 0 0
1459 59 2 0.0000000000000000e+00 1.5691659817025412e+01 -1.9353425158886527e+01 -1.7764040511220875e+02 0 0 0
4460 179 4 0.0000000000000000e+00 4.3581259718921945e+00 -7.8642381739510974e+00 -1.6796979175307285e+02 0 0 0
581 24 2 0.0000000000000000e+00 -4.8855509620290661e+01 1.0603580443465734e-01 -1.6594986619076462e+02 0 0 0
4461 179 4 0.0000000000000000e+00 6.3176574855910381e+00 -1.1225712926720672e+00 -1.7599792385482780e+02 0 0 0
4783 192 4 0.0000000000000000e+00 1.6597047099316551e+01 1.6660688501095255e+00 -1.7643396390301896e+02 0 0 0
3402 137 4 0.0000000000000000e+00 2.7342765824630714e+01 2.8837192188390159e+00 -1.7081980015775028e+02 0 0 0
4784 192 4 0.0000000000000000e+00 1.7748630993915821e+01 3.8842685818422331e+00 -1.6634084745735453e+02 0 0 0
3401 137 3 0.0000000000000000e+00 3.5745835524801869e+01 -2.9312739290556697e+00 -1.6959870884281727e+02 0 0 0
582 24 1 0.0000000000000000e+00 -5.3175204065846835e+01 8.4878591849700111e+00 -1.6947620531992138e+02 0 0 0
3069 123 3 0.0000000000000000e+00 -4.2069661414389138e+01 1.0412180846352523e+01 -1.6650256461358549e+02 0 0 0
3068 123 4 0.0000000000000000e+00 -4.1271173693872285e+01 1.6142089120288453e+01 -1.7448342622890843e+02 0 0 0
1054 43 2 0.0000000000000000e+00 -5.3214297869755924e+00 1.5059522489975555e+01 -1.7039275266803739e+02 0 0 0
1055 43 2 0.0000000000000000e+00 1.7971346253794485e+00 8.6032043296199419e+00 -1.7121832402115214e+02 0 0 0
1056 43 2 0.0000000000000000e+00 1.1031794423044385e+01 1.1311540534252046e+01 -1.6931473050454451e+02 0 0 0
2245 90 2 0.0000000000000000e+00 7.0331897237419136e+00 1.7380551674718198e+01 -1.7757897235226105e+02 0 0 0
2246 90 2 0.0000000000000000e+00 4.6638556076131312e+00 1.9625347953536004e+01 -1.6828039585589869e+02 0 0 0
3403 137 4 0.0000000000000000e+00 2.1501063661296556e+01 1.0663091963762989e+01 -1.7474974805975890e+02 0 0 0
3404 137 4 0.0000000000000000e+00 2.2994606578787536e+01 2.0261785093398842e+01 -1.7424628720129306e+02 0 0 0
408 17 2 0.0000000000000000e+00 3.2017231378551593e+01 1.5586212268009280e+01 -1.7818563349282894e+02 0 0 0
409 17 2 0.0000000000000000e+00 3.4001788117891451e+01 1.2914642332467526e+01 -1.6913557378983802e+02 0 0 0
3270 131 4 0.0000000000000000e+00 2.4764032010660024e+01 -4.7747429532812930e+01 -1.5845148830186238e+02 0 0 0
4314 173 4 0.0000000000000000e+00 3.8083475379253485e+01 -5.4094348668680155e+01 -1.5874078924575994e+02 0 0 0
3271 131 4 0.0000000000000000e+00 2.9512570777280470e+01 -5.5340481027832091e+01 -1.5317305439208812e+02 0 0 0
4400 176 3 0.0000000000000000e+00 -2.1833241373038245e+01 -3.8513333011491255e+01 -1.5594106613024076e+02 0 0 0
4398 176 4 0.0000000000000000e+00 -7.7144239604719749e+00 -4.0937293842638603e+01 -1.5294198190941762e+02 0 0 0
4397 176 4 0.0000000000000000e+00 6.4808348027856344e-01 -4.6169178074113148e+01 -1.5465685719838643e+02 0 0 0
1827 74 2 0.0000000000000000e+00 1.1979505443633210e+01 -3.2651155838870920e+01 -1.5893909974979817e+02 0 0 0
3269 131 3 0.0000000000000000e+00 1.7056160080983130e+01 -4.3955980266725341e+01 -1.6284523806005814e+02 0 0 0
1826 74 1 0.0000000000000000e+00 1.6303868462530470e+01 -3.9967002707184953e+01 -1.5241290324245884e+02 0 0 0
3265 131 4 0.0000000000000000e+00 3.2863251926911175e+01 -3.6419069144037188e+01 -1.6070360457867397e+02 0 0 0
4313 173 3 0.0000000000000000e+00 4.0619273060901115e+01 -4.4210342937049816e+01 -1.5767359456488538e+02 0 0 0
3073 123 4 0.0000000000000000e+00 -3.2128439960335115e+01 -2.2812877295250235e+01 -1.5193520807147181e+02 0 0 0
1844 74 1 0.0000000000000000e+00 -1.7410988936796318e+01 -2.8235038984096725e+01 -1.5787370876080487e+02 0 0 0
1829 74 2 0.0000000000000000e+00 -1.1007595130701195e+00 -2.1041948636975206e+01 -1.5708118253267739e+02 0 0 0
1828 74 2 0.0000000000000000e+00 8.7156572463952049e+00 -2.2866628592983048e+01 -1.5868994536841808e+02 0 0 0
1461 59 2 0.0000000000000000e+00 2.1238822882606222e+01 -2.2522767327844928e+01 -1.5934359593884452e+02 0 0 0
586 24 2 0.0000000000000000e+00 -6.7254920522745962e+01 -6.1558939569091589e+00 -1.5191976871644641e+02 0 0 0
587 24 2 0.0000000000000000e+00 -6.4925706557519163e+01 -1.5820055129816765e+01 -1.5344560125823523e+02 0 0 0
3072 123 4 0.0000000000000000e+00 -3.4119889936118859e+01 -1.7213012780494591e+01 -1.6002682031008524e+02 0 0 0
3071 123 4 0.0000000000000000e+00 -3.5809392253628623e+01 -7.6608014653043659e+00 -1.6248469440951112e+02 0 0 0
2175 87 1 0.0000000000000000e+00 -8.7285927281122738e+01 -2.6680462225902963e+00 -1.5291113793335518e+02 0 0 0
585 24 2 0.0000000000000000e+00 -7.2670659978574477e+01 1.3528882755740625e+00 -1.5545447067108930e+02 0 0 0
580 24 2 0.0000000000000000e+00 -4.8214018345841964e+01 -1.4228881677998400e+00 -1.5601437288823490e+02 0 0 0
3070 123 4 0.0000000000000000e+00 -3.8025051290417302e+01 1.8344189489031553e+00 -1.6468375900918045e+02 0 0 0
4458 179 4 0.0000000000000000e+00 -4.4487361485432414e-01 2.9365860095439889e+00 -1.5372115525634553e+02 0 0 0
4459 179 4 0.0000000000000000e+00 4.5686995184814068e+00 -2.4882599095685318e+00 -1.5992985973194234e+02 0 0 0
4785 192 4 0.0000000000000000e+00 2.2641256746935799e+01 2.6712268359777291e-01 -1.5816671569182137e+02 0 0 0
457 19 1 0.0000000000000000e+00 4.1592956023181550e+01 -8.2019297601013952e-01 -1.6001692183121330e+02 0 0 0
584 24 2 0.0000000000000000e+00 -6.7995383315829528e+01 9.8021155169987733e+00 -1.5684849637468895e+02 0 0 0
583 24 2 0.0000000000000000e+00 -6.1270613385054482e+01 1.1936399644451054e+01 -1.6419361940318802e+02 0 0 0
4484 180 4 0.0000000000000000e+00 -5.7826978564636313e+01 1.6648950003512454e+01 -1.5309064030148065e+02 0 0 0
4485 180 4 0.0000000000000000e+00 -4.9721550830805128e+01 1.5620036755833002e+01 -1.5901164458059807e+02 0 0 0
4486 180 4 0.0000000000000000e+00 -4.0012651967148955e+01 1.8796091776146291e+01 -1.6065540080419839e+02 0 0 0
1051 43 1 0.0000000000000000e+00 -2.6797177408847247e+01 1.6708851755664821e+01 -1.6562948597123807e+02 0 0 0
4455 179 4 0.0000000000000000e+00 -2.4475267678410052e+01 1.8783458262290029e+01 -1.5361586890529418e+02 0 0 0
2247 90 2 0.0000000000000000e+00 -3.2272122826712928e+00 2.1626493623003686e+01 -1.6312926492725992e+02 0 0 0
1057 43 1 0.0000000000000000e+00 1.9022176324202864e+01 1.5840345740848395e+01 -1.6455496144955168e+02 0 0 0
1058 43 2 0.0000000000000000e+00 2.3833430679991547e+01 1.5291805156263342e+01 -1.5583640879409117e+02 0 0 0
410 17 2 0.0000000000000000e+00 3.4958894342077507e+01 1.4019918673812132e+01 -1.5911925995870502e+02 0 0 0
411 17 2 0.0000000000000000e+00 4.2111102826163687e+01 8.1459787346847765e+00 -1.5410215678472576e+02 0 0 0
2386 96 2 0.0000000000000000e+00 -6.9832942730726032e+01 -5.9236639666545607e+01 -1.4319025649528501e+02 0 0 0
2385 96 2 0.0000000000000000e+00 -6.5395177422762714e+01 -5.0877647925410187e+01 -1.3906360008063430e+02 0 0 0
1165 47 2 0.0000000000000000e+00 -1.5292300084480896e+01 -5.6982992885444212e+01 -1.4084136770361818e+02 0 0 0
3272 131 4 0.0000000000000000e+00 3.0917481152828014e+01 -5.6527886928662127e+01 -1.4304035178719590e+02 0 0 0
425 17 1 0.0000000000000000e+00 3.8420408071832640e+01 -5.0217400452407041e+01 -1.4806592812888761e+02 0 0 0
3171 127 4 0.0000000000000000e+00 -8.6783854960563588e+01 -3.9025661305667178e+01 -1.3814572476966487e+02 0 0 0
2384 96 2 0.0000000000000000e+00 -5.8121212444268039e+01 -4.3797356620217535e+01 -1.3816353341267001e+02 0 0 0
4399 176 4 0.0000000000000000e+00 -1.5875195469414155e+01 -4.0213613704491394e+01 -1.4768980328176247e+02 0 0 0
4396 176 4 0.0000000000000000e+00 1.9178659386835828e+00 -4.4963449565571693e+01 -1.4469592554733470e+02 0 0 0
3264 131 4 0.0000000000000000e+00 3.4978941033671326e+01 -3.2719562899467483e+01 -1.5146101945431539e+02 0 0 0
1463 59 1 0.0000000000000000e+00 2.8691252489046718e+01 -3.3622352406580887e+01 -1.4499591674045203e+02 0 0 0
1464 59 2 0.0000000000000000e+00 3.6932398708314828e+01 -3.9428788790923754e+01 -1.4366768008058420e+02 0 0 0
3998 160 4 0.0000000000000000e+00 -8.8612529009605169e+01 -2.1151244151421967e+01 -1.3779666053514055e+02 0 0 0
3170 127 4 0.0000000000000000e+00 -7.9432992626839805e+01 -3.2159100893053406e+01 -1.3867359830106494e+02 0 0 0
3169 127 3 0.0000000000000000e+00 -7.3823262514535855e+01 -2.4017150811898802e+01 -1.3867463509299432e+02 0 0 0
589 24 2 0.0000000000000000e+00 -6.7719902645891878e+01 -3.0858508111823770e+01 -1.4194320213274838e+02 0 0 0
588 24 1 0.0000000000000000e+00 -6.8993037634923596e+01 -2.3398001908235258e+01 -1.4815888643012633e+02 0 0 0
3074 123 4 0.0000000000000000e+00 -3.3794620042960055e+01 -2.4039108189531678e+01 -1.4206927419976097e+02 0 0 0
1843 74 2 0.0000000000000000e+00 -2.0811583770675558e+01 -2.5822591110484773e+01 -1.4809849471658407e+02 0 0 0
1842 74 2 0.0000000000000000e+00 -2.3495809895194057e+01 -2.4881360895723901e+01 -1.3868263164900668e+02 0 0 0
1462 59 2 0.0000000000000000e+00 2.4256998516035054e+01 -2.7154360065079029e+01 -1.5131984038192408e+02 0 0 0
453 19 2 0.0000000000000000e+00 2.6020265032485938e+01 -2.7070137118917732e+01 -1.3832423048565431e+02 0 0 0
3263 131 3 0.0000000000000000e+00 3.7878367042650211e+01 -2.8449388384454544e+01 -1.4261092221925705e+02 0 0 0
454 19 2 0.0000000000000000e+00 3.1005347971491517e+01 -2.1080044559454823e+01 -1.4504446090404835e+02 0 0 0
4000 160 3 0.0000000000000000e+00 -9.6736889768870839e+01 -6.4138949026497141e+00 -1.4842243232278867e+02 0 0 0
3999 160 4 0.0000000000000000e+00 -9.2862607661452870e+01 -1.4944358606801426e+01 -1.4425276024469559e+02 0 0 0
3168 127 4 0.0000000000000000e+00 -7.7604988233098183e+01 -1.6927856464762296e+01 -1.4473718994514036e+02 0 0 0
3167 127 4 0.0000000000000000e+00 -8.3006341123769502e+01 -9.5888752407882336e+00 -1.4056977242968023e+02 0 0 0
2171 87 2 0.0000000000000000e+00 -5.8783866167621326e+01 -6.3436958772388046e+00 -1.3767190229375012e+02 0 0 0
578 24 2 0.0000000000000000e+00 -3.4764485419950510e+01 -5.5503312450214590e+00 -1.4238915948963162e+02 0 0 0
577 24 2 0.0000000000000000e+00 -2.5372058071719792e+01 -7.3227010093600642e+00 -1.3946158019558399e+02 0 0 0
1830 74 2 0.0000000000000000e+00 -8.8658650331239972e+00 -1.6306320617234448e+01 -1.5133810993175501e+02 0 0 0
1831 74 2 0.0000000000000000e+00 -8.5146564098398141e+00 -8.9352892253739871e+00 -1.4415282807213970e+02 0 0 0
455 19 2 0.0000000000000000e+00 3.9196893467559065e+01 -1.7660375769139453e+01 -1.4896073862259783e+02 0 0 0
2174 87 2 0.0000000000000000e+00 -8.2410241122255215e+01 4.3591461563080536e+00 -1.4805237318848606e+02 0 0 0
2173 87 2 0.0000000000000000e+00 -7.3238918408238717e+01 5.8250135640216154e+00 -1.4321596971256130e+02 0 0 0
2172 87 2 0.0000000000000000e+00 -6.6121723101593716e+01 -1.5459639203948159e+00 -1.4281669962592662e+02 0 0 0
2170 87 2 0.0000000000000000e+00 -5.0193683927985980e+01 -7.5404429612700341e-01 -1.3841766922434687e+02 0 0 0
3160 127 4 0.0000000000000000e+00 -4.7048141240426204e+01 7.6227241727998978e+00 -1.4495206988098533e+02 0 0 0
579 24 2 0.0000000000000000e+00 -4.0798208929980284e+01 -3.1716393284061000e+00 -1.5002875438305699e+02 0 0 0
3158 127 4 0.0000000000000000e+00 -2.8331267291020428e+01 6.0553211229031181e+00 -1.4699171556252773e+02 0 0 0
3176 128 3 0.0000000000000000e+00 -2.2090908492288801e+01 1.9062355713840085e+00 -1.3953188309464090e+02 0 0 0
4457 179 3 0.0000000000000000e+00 -1.0329303296254068e+01 6.0917608829192291e+00 -1.5164895754501111e+02 0 0 0
1832 74 1 0.0000000000000000e+00 -6.1298786050835599e+00 8.2730532340812835e-01 -1.4277754868219176e+02 0 0 0
4786 192 4 0.0000000000000000e+00 2.2754300879870566e+01 8.8337221326636983e-01 -1.4832945498196079e+02 0 0 0
4787 192 4 0.0000000000000000e+00 3.0691588317770570e+01 2.5172908868854393e+00 -1.4272257438561255e+02 0 0 0
4483 180 4 0.0000000000000000e+00 -6.3851627096721032e+01 2.1615051696332738e+01 -1.4605144727518518e+02 0 0 0
3159 127 4 0.0000000000000000e+00 -3.7555874294784218e+01 8.5117159576570991e+00 -1.4812787484922396e+02 0 0 0
3157 127 3 0.0000000000000000e+00 -3.2441728639310398e+01 9.6302626883170497e+00 -1.3778160128441456e+02 0 0 0
4456 179 4 0.0000000000000000e+00 -1.9738784956296637e+01 9.7606502508467905e+00 -1.5109362384107862e+02 0 0 0
3178 128 4 0.0000000000000000e+00 -6.9067458418751304e+00 1.2731878360766231e+01 -1.4035298915977108e+02 0 0 0
3179 128 4 0.0000000000000000e+00 -1.5791870857950829e-01 1.8736480708375552e+01 -1.4461026938792611e+02 0 0 0
662 27 2 0.0000000000000000e+00 2.4558336496387156e+01 1.3792467196279087e+01 -1.3774166416266240e+02 0 0 0
1059 43 2 0.0000000000000000e+00 2.7167261501934352e+01 2.1533484144907291e+01 -1.4893832875558098e+02 0 0 0
4788 192 3 0.0000000000000000e+00 3.7876413184547822e+01 9.6062138815064078e+00 -1.4181097571897882e+02 0 0 0
252 11 2 0.0000000000000000e+00 -6.9183544052254007e+01 -1.0834625392333791e+02 -1.3000226159915184e+02 0 0 0
253 11 2 0.0000000000000000e+00 -6.3541812634364796e+01 -1.1078277505998045e+02 -1.3746917132506101e+02 0 0 0
254 11 2 0.0000000000000000e+00 -5.7544469021582756e+01 -1.0309964149252137e+02 -1.3704487838315032e+02 0 0 0
2396 96 2 0.0000000000000000e+00 -9.1036728868702951e+01 -9.6939524400679048e+01 -1.2505217731331074e+02 0 0 0
2397 96 2 0.0000000000000000e+00 -8.0795534106809143e+01 -9.8349725421686855e+01 -1.2558343875169302e+02 0 0 0
255 11 2 0.0000000000000000e+00 -6.2092557714622139e+01 -9.4212885100559276e+01 -1.3621305126026814e+02 0 0 0
256 11 2 0.0000000000000000e+00 -6.3668246769048643e+01 -9.7699692773328351e+01 -1.2647065891795152e+02 0 0 0
3174 127 4 0.0000000000000000e+00 -8.3440879369834278e+01 -6.3743090853929914e+01 -1.2782957464244095e+02 0 0 0
3175 127 3 0.0000000000000000e+00 -7.7894500069373251e+01 -7.2227454271412768e+01 -1.2690288585493541e+02 0 0 0
2388 96 1 0.0000000000000000e+00 -6.9564853909908877e+01 -6.5601093636703709e+01 -1.2391354594493498e+02 0 0 0
2387 96 2 0.0000000000000000e+00 -7.0156750314034582e+01 -6.2054868124526578e+01 -1.3315883616734627e+02 0 0 0
3273 131 4 0.0000000000000000e+00 3.1469169987078914e+01 -6.0965243643246410e+01 -1.3429883932239176e+02 0 0 0
3274 131 4 0.0000000000000000e+00 3.2996967502183359e+01 -6.2921040200459352e+01 -1.2466583803436626e+02 0 0 0
3173 127 4 0.0000000000000000e+00 -8.5080850117456933e+01 -5.4707272173757993e+01 -1.3069358946673242e+02 0 0 0
3172 127 4 0.0000000000000000e+00 -8.9940724935541425e+01 -4.8101911238845162e+01 -1.3612612048473093e+02 0 0 0
1167 47 2 0.0000000000000000e+00 -3.0765346624127424e+01 -4.9245543599012500e+01 -1.3072621116869115e+02 0 0 0
1166 47 2 0.0000000000000000e+00 -2.2627455842652463e+01 -5.4371387047548289e+01 -1.3383683501327397e+02 0 0 0
3083 124 4 0.0000000000000000e+00 -1.9600001753870355e+01 -4.6344101445614974e+01 -1.2848259829489484e+02 0 0 0
1164 47 2 0.0000000000000000e+00 -7.1470760843195311e+00 -5.4705981345807146e+01 -1.3604623315176465e+02 0 0 0
1163 47 1 0.0000000000000000e+00 -6.4375504546646347e+00 -5.2389864403593350e+01 -1.2658736109162136e+02 0 0 0
4395 176 4 0.0000000000000000e+00 4.9606337623583121e+00 -4.9903892848337634e+01 -1.3655536968712593e+02 0 0 0
1465 59 2 0.0000000000000000e+00 3.8522260979024480e+01 -4.6449817480245002e+01 -1.3695252767139425e+02 0 0 0
1466 59 2 0.0000000000000000e+00 4.0121071480730883e+01 -5.3474133154034710e+01 -1.3066896992673119e+02 0 0 0
590 24 2 0.0000000000000000e+00 -6.9352491961750701e+01 -3.9190367382282929e+01 -1.3718599241633959e+02 0 0 0
3996 160 4 0.0000000000000000e+00 -8.1106419130501180e+01 -3.3198385603773424e+01 -1.2379785830180370e+02 0 0 0
591 24 2 0.0000000000000000e+00 -6.8434648265082757e+01 -4.5050796601616469e+01 -1.2891146013051906e+02 0 0 0
2383 96 2 0.0000000000000000e+00 -5.7027197765840647e+01 -3.4733758916232283e+01 -1.3440414841590362e+02 0 0 0
1168 47 2 0.0000000000000000e+00 -3.5900234607665901e+01 -4.0933986152282849e+01 -1.3194970045681498e+02 0 0 0
3084 124 4 0.0000000000000000e+00 -1.4888960923654583e+01 -4.0659208127655731e+01 -1.3502807367838258e+02 0 0 0
3085 124 4 0.0000000000000000e+00 -6.1036162893097412e+00 -3.7176720585532578e+01 -1.3136401245586617e+02 0 0 0
4394 176 3 0.0000000000000000e+00 2.9902437771407464e+00 -4.5758899429978769e+01 -1.2813941351981214e+02 0 0 0
451 19 1 0.0000000000000000e+00 1.3048776259504622e+01 -4.1571290474465542e+01 -1.3704283181125186e+02 0 0 0
4869 195 3 0.0000000000000000e+00 2.2183112104421252e+01 -4.2006412546441297e+01 -1.3064048918232527e+02 0 0 0
452 19 2 0.0000000000000000e+00 1.8186669658083090e+01 -3.2659770511383933e+01 -1.3538384288282529e+02 0 0 0
4868 195 4 0.0000000000000000e+00 1.6244318491811544e+01 -3.8579820681321110e+01 -1.2375717273202811e+02 0 0 0
4870 195 4 0.0000000000000000e+00 3.2024511090023502e+01 -4.1119645240107509e+01 -1.3170311908372514e+02 0 0 0
4871 195 4 0.0000000000000000e+00 3.7863741320329048e+01 -3.3832681442106150e+01 -1.3544442686661324e+02 0 0 0
3997 160 4 0.0000000000000000e+00 -8.6876616879557787e+01 -2.8599127943605893e+01 -1.3094031235901804e+02 0 0 0
2382 96 1 0.0000000000000000e+00 -5.7999582309951940e+01 -2.5512191828112599e+01 -1.3097175593940372e+02 0 0 0
3075 123 3 0.0000000000000000e+00 -3.8193725766714792e+01 -2.0189391081071516e+01 -1.3348938218762629e+02 0 0 0
1169 47 1 0.0000000000000000e+00 -3.5245705695885661e+01 -3.1085254354416954e+01 -1.3148646316708704e+02 0 0 0
1170 47 2 0.0000000000000000e+00 -3.2752696524550529e+01 -2.3478801223287743e+01 -1.2525686727684749e+02 0 0 0
1841 74 2 0.0000000000000000e+00 -2.3803713698381468e+01 -3.0655940940991499e+01 -1.3085245946107079e+02 0 0 0
3086 124 4 0.0000000000000000e+00 -3.7753330281184500e-01 -2.9537628563596627e+01 -1.2813153196233921e+02 0 0 0
3087 124 4 0.0000000000000000e+00 4.7979476514666040e+00 -2.0579115873858065e+01 -1.2954598569802590e+02 0 0 0
3088 124 3 0.0000000000000000e+00 1.3515440146377749e+01 -2.0701080325567183e+01 -1.2455911292089418e+02 0 0 0
3089 124 4 0.0000000000000000e+00 2.2666999655300700e+01 -2.4316750922192149e+01 -1.2788811946016553e+02 0 0 0
3090 124 4 0.0000000000000000e+00 2.8183816400550089e+01 -3.2455411969491500e+01 -1.2639569598746756e+02 0 0 0
3262 131 4 0.0000000000000000e+00 3.4462985313730691e+01 -2.1393394128289529e+01 -1.3617162250410814e+02 0 0 0
3091 124 4 0.0000000000000000e+00 3.8590547687788444e+01 -3.0785118693713876e+01 -1.2444196840561368e+02 0 0 0
2381 96 2 0.0000000000000000e+00 -5.6953317933449590e+01 -1.5620146923452026e+01 -1.3000556225334392e+02 0 0 0
2380 96 2 0.0000000000000000e+00 -5.5238901769601064e+01 -6.9240936186138642e+00 -1.2525661516632672e+02 0 0 0
1982 80 1 0.0000000000000000e+00 -4.5715577010694012e+01 -1.5688849134792285e+01 -1.2672137390426816e+02 0 0 0
576 24 1 0.0000000000000000e+00 -1.5642198422355708e+01 -7.1403710224601094e+00 -1.3754836356016241e+02 0 0 0
1171 47 2 0.0000000000000000e+00 -2.5347149442452530e+01 -1.6055721532003162e+01 -1.2692676280265636e+02 0 0 0
2158 87 2 0.0000000000000000e+00 3.6456229083979363e+00 -7.2991908383124962e+00 -1.3061963294323922e+02 0 0 0
3261 131 4 0.0000000000000000e+00 2.9423800640513662e+01 -1.5871947653329636e+01 -1.2907352106714026e+02 0 0 0
3166 127 4 0.0000000000000000e+00 -8.7989656650380098e+01 -5.0959522193229088e+00 -1.3244861148367440e+02 0 0 0
3165 127 4 0.0000000000000000e+00 -8.6849466647405606e+01 4.2410772045616874e+00 -1.3002380645072955e+02 0 0 0
3164 127 4 0.0000000000000000e+00 -7.8795909208336525e+01 1.6269567332156079e-01 -1.2628282735415114e+02 0 0 0
3163 127 3 0.0000000000000000e+00 -6.8756964798773339e+01 7.9924559536722162e-01 -1.2843195704430855e+02 0 0 0
3162 127 4 0.0000000000000000e+00 -6.0834565196343497e+01 5.7351135223153751e+00 -1.3218253776565513e+02 0 0 0
2169 87 1 0.0000000000000000e+00 -4.0970740440482771e+01 3.1686396330671509e+00 -1.3727631052341079e+02 0 0 0
2168 87 2 0.0000000000000000e+00 -3.5449371157094603e+01 6.9480122024861277e+00 -1.2966920107433083e+02 0 0 0
3177 128 4 0.0000000000000000e+00 -1.3814394418351350e+01 6.6727816901054329e+00 -1.3683622883678484e+02 0 0 0
1833 74 2 0.0000000000000000e+00 -4.3574691317382062e+00 3.5934780050267143e+00 -1.3354146737809330e+02 0 0 0
1834 74 2 0.0000000000000000e+00 -1.8663019372210428e+00 7.2441884692807534e-01 -1.2407622453015051e+02 0 0 0
2159 87 2 0.0000000000000000e+00 5.8491776456598235e+00 2.3875628433550329e+00 -1.3483713958379792e+02 0 0 0
3258 131 4 0.0000000000000000e+00 9.4610634795273665e+00 5.1096579865746727e-01 -1.2481553347485421e+02 0 0 0
3257 131 3 0.0000000000000000e+00 1.6139375630867548e+01 -5.1412782561330364e+00 -1.2974544899658142e+02 0 0 0
3256 131 4 0.0000000000000000e+00 2.6148913628359711e+01 -4.0549201019042638e+00 -1.3196303969820602e+02 0 0 0
3255 131 4 0.0000000000000000e+00 3.3545525661617447e+01 2.3389523647289301e+00 -1.3125024485435713e+02 0 0 0
4854 195 4 0.0000000000000000e+00 4.2153350895313281e+01 -4.2083211141542600e+00 -1.2435225967521704e+02 0 0 0
1425 57 1 0.0000000000000000e+00 -6.4437595485150084e+01 1.5834768280532991e+01 -1.3100108091719591e+02 0 0 0
3161 127 4 0.0000000000000000e+00 -5.1759014381434660e+01 9.2391395969316328e+00 -1.3593591777757848e+02 0 0 0
3156 127 4 0.0000000000000000e+00 -3.7303593679675458e+01 1.7880947656420094e+01 -1.3511235257309684e+02 0 0 0
2167 87 2 0.0000000000000000e+00 -2.6238222611451146e+01 1.0224436344561521e+01 -1.3070487910493745e+02 0 0 0
2166 87 2 0.0000000000000000e+00 -1.8011985080054917e+01 1.5646815153295936e+01 -1.2693595934131402e+02 0 0 0
2161 87 2 0.0000000000000000e+00 3.3578764982237392e+00 1.9494750353430899e+01 -1.2678757957884643e+02 0 0 0
2160 87 2 0.0000000000000000e+00 7.0914449591561795e+00 1.0537295403349736e+01 -1.2921289548586262e+02 0 0 0
661 27 2 0.0000000000000000e+00 1.5325737298492445e+01 1.4945738938865315e+01 -1.3503453853626988e+02 0 0 0
663 27 1 0.0000000000000000e+00 3.3296996147335200e+01 1.8411281591235841e+01 -1.3630866743369901e+02 0 0 0
2809 113 4 0.0000000000000000e+00 3.9668704990584267e+01 1.4641715323811674e+01 -1.2572959485752862e+02 0 0 0
4151 167 3 0.0000000000000000e+00 -6.7952856983591971e+01 -1.1679047665848175e+02 -1.1482406446919289e+02 0 0 0
4152 167 4 0.0000000000000000e+00 -7.7214524648434164e+01 -1.1375766645040075e+02 -1.1802736852862404e+02 0 0 0
4153 167 4 0.0000000000000000e+00 -7.4994197257387825e+01 -1.0524166292718247e+02 -1.1286302814616792e+02 0 0 0
251 11 1 0.0000000000000000e+00 -6.5998436815769907e+01 -1.0731479625446889e+02 -1.2022305781204696e+02 0 0 0
4949 198 4 0.0000000000000000e+00 -5.0250060537532484e+01 -1.0495123187123556e+02 -1.1519158234938234e+02 0 0 0
2395 96 2 0.0000000000000000e+00 -9.8953616841592194e+01 -9.1148873817329303e+01 -1.2263713104902243e+02 0 0 0
2398 96 2 0.0000000000000000e+00 -7.4140121356116609e+01 -9.3719977346664237e+01 -1.1919541349261425e+02 0 0 0
4154 167 4 0.0000000000000000e+00 -6.8716077060312315e+01 -9.9116127972406829e+01 -1.0972693962014885e+02 0 0 0
257 11 1 0.0000000000000000e+00 -6.1454420816197882e+01 -1.0011224077542333e+02 -1.1681553344929497e+02 0 0 0
258 11 2 0.0000000000000000e+00 -5.7241854506402035e+01 -9.0871029121544140e+01 -1.1918982518447928e+02 0 0 0
2399 96 2 0.0000000000000000e+00 -6.6601723650939107e+01 -8.7151802505089620e+01 -1.1735047335560240e+02 0 0 0
4950 198 3 0.0000000000000000e+00 -5.2339571472604803e+01 -9.8450090217611404e+01 -1.2264001591812656e+02 0 0 0
2394 96 1 0.0000000000000000e+00 -1.0239753112674811e+02 -8.3483283153848589e+01 -1.1689039680343392e+02 0 0 0
2393 96 2 0.0000000000000000e+00 -1.0424798413041529e+02 -7.3752103730834492e+01 -1.1775173743521864e+02 0 0 0
2391 96 2 0.0000000000000000e+00 -8.5463866642736306e+01 -8.0019559680752195e+01 -1.1782696686475586e+02 0 0 0
2392 96 2 0.0000000000000000e+00 -9.4700863531630688e+01 -7.6255994528811215e+01 -1.1667256651400736e+02 0 0 0
2390 96 2 0.0000000000000000e+00 -7.6321175964851591e+01 -8.2726312252287073e+01 -1.2092538344640806e+02 0 0 0
2389 96 2 0.0000000000000000e+00 -7.2183136155177195e+01 -7.4054307587426180e+01 -1.1920156074791335e+02 0 0 0
2400 96 1 0.0000000000000000e+00 -6.0529467736754192e+01 -8.3506874855768373e+01 -1.0996056021713017e+02 0 0 0
259 11 2 0.0000000000000000e+00 -5.1132363811379342e+01 -8.3296832014686501e+01 -1.2118843385576778e+02 0 0 0
260 11 2 0.0000000000000000e+00 -4.3071416188668763e+01 -7.7686481851300741e+01 -1.1966053306358059e+02 0 0 0
261 11 2 0.0000000000000000e+00 -3.3961588329513525e+01 -7.4134129428890148e+01 -1.1921310107216829e+02 0 0 0
2352 95 2 0.0000000000000000e+00 3.1692081476589863e+01 -8.3923340323734053e+01 -1.0975213877873675e+02 0 0 0
2351 95 1 0.0000000000000000e+00 2.9608724593547841e+01 -7.4719077646064264e+01 -1.1108863095763955e+02 0 0 0
262 11 2 0.0000000000000000e+00 -2.9028763546343026e+01 -6.5991278335361059e+01 -1.1775671399240382e+02 0 0 0
264 11 2 0.0000000000000000e+00 -1.6361494659431440e+01 -5.9975770957907891e+01 -1.1517678360586858e+02 0 0 0
265 11 2 0.0000000000000000e+00 -6.9591935271740768e+00 -6.0226472109556504e+01 -1.1372313988641137e+02 0 0 0
268 11 2 0.0000000000000000e+00 2.0560152069580056e+01 -6.0794775784492579e+01 -1.1009993900181534e+02 0 0 0
271 11 2 0.0000000000000000e+00 4.1027505976749154e+01 -7.0656069189969287e+01 -1.1334113106340969e+02 0 0 0
3275 131 3 0.0000000000000000e+00 3.6507460649788896e+01 -6.1864846011324389e+01 -1.1485070153316644e+02 0 0 0
593 24 2 0.0000000000000000e+00 -6.9054472183796989e+01 -5.7320946353405070e+01 -1.1401942733780578e+02 0 0 0
592 24 2 0.0000000000000000e+00 -6.8908107645560776e+01 -5.3326554723836850e+01 -1.2329552700792676e+02 0 0 0
3082 124 3 0.0000000000000000e+00 -2.6511315057473013e+01 -4.8428677813754511e+01 -1.2122098715130227e+02 0 0 0
263 11 1 0.0000000000000000e+00 -2.3607952381483951e+01 -5.9011356007578321e+01 -1.2132009831520347e+02 0 0 0