LAMMPS data file via write_data, version 5 Jun 2019, timestep = 390000000

5000 atoms
4 atom types
5293 bonds
3 bond types
4600 angles
2 angle types

-2.5000000000000000e+02 2.5000000000000000e+02 xlo xhi
-2.5000000000000000e+02 2.5000000000000000e+02 ylo yhi
-2.5000000000000000e+02 2.5000000000000000e+02 zlo zhi

Masses

1 1000
2 1000
3 1000
4 1000

Pair Coeffs # lj/cut

1 0.18 10
2 0.18 10
3 0.18 10
4 0.18 10

Bond Coeffs # harmonic

1 3 10
2 3 10
3 3 11.22

Angle Coeffs # cosine

1 2
2 2

Atoms # full

1828 74 2 0.0000000000000000e+00 -4.0255396672271097e+01 -4.2021325651080225e+01 -1.5149900656494853e+02 0 0 0
1826 74 1 0.0000000000000000e+00 -2.9045722671156796e+01 -5.5019703378135553e+01 -1.5167123022800925e+02 0 0 0
1830 74 2 0.0000000000000000e+00 -5.3377122488596605e+01 -2.7432088464457578e+01 -1.5458655591083183e+02 0 0 0
1829 74 2 0.0000000000000000e+00 -4.8074301580681208e+01 -3.5740322613968615e+01 -1.5359535094723330e+02 0 0 0
3269 131 3 0.0000000000000000e+00 -2.4487110923672905e+01 -5.8831550526530080e+01 -1.4186322336289683e+02 0 0 0
3268 131 4 0.0000000000000000e+00 -1.8690164460187958e+01 -6.5971582883725731e+01 -1.4426388228405557e+02 0 0 0
3267 131 4 0.0000000000000000e+00 -1.0001375794379836e+01 -6.3956435140654186e+01 -1.4958218571141001e+02 0 0 0
3266 131 4 0.0000000000000000e+00 -4.0795287217733789e-02 -6.1122630147152115e+01 -1.4844119305114887e+02 0 0 0
3273 131 4 0.0000000000000000e+00 -4.2572587634829496e+01 -4.3353742360697318e+01 -1.3920654460412126e+02 0 0 0
1827 74 2 0.0000000000000000e+00 -3.6772323113395821e+01 -5.0054034685703655e+01 -1.4659139519895632e+02 0 0 0
1460 59 2 0.0000000000000000e+00 -1.7059239815119167e+01 -4.2962421359164729e+01 -1.4076168844586113e+02 0 0 0
3264 131 4 0.0000000000000000e+00 -2.7302767610461076e-02 -5.0637776267068951e+01 -1.3876023139179267e+02 0 0 0
270 11 2 0.0000000000000000e+00 -7.2196882359849383e+01 -2.8523237154024404e+01 -1.4786550294613164e+02 0 0 0
3275 131 3 0.0000000000000000e+00 -5.5397333897143803e+01 -3.9726361140542409e+01 -1.4803865577172766e+02 0 0 0
269 11 1 0.0000000000000000e+00 -6.3391231461412730e+01 -3.2104866679867520e+01 -1.4405073869981055e+02 0 0 0
3274 131 4 0.0000000000000000e+00 -5.2182175085233226e+01 -3.9929636545548412e+01 -1.3810077453340168e+02 0 0 0
3272 131 4 0.0000000000000000e+00 -3.3815233246066299e+01 -4.0561576454659907e+01 -1.4201277083594510e+02 0 0 0
1459 59 2 0.0000000000000000e+00 -2.0769281445498116e+01 -3.5512390108290163e+01 -1.4628717033722253e+02 0 0 0
55 3 2 0.0000000000000000e+00 -1.1121825234008545e+01 -3.5180266861772452e+01 -1.4370944396971075e+02 0 0 0
56 3 2 0.0000000000000000e+00 -3.0415008831258774e+00 -2.9610144645239490e+01 -1.4577967982274021e+02 0 0 0
1846 74 2 0.0000000000000000e+00 4.2580197035255596e+00 -9.6884369977713931e+01 -1.2796032631075774e+02 0 0 0
1844 74 1 0.0000000000000000e+00 -1.2647686218659114e+01 -8.9467684825983397e+01 -1.2523600652347862e+02 0 0 0
1843 74 2 0.0000000000000000e+00 -2.1650965071903258e+01 -8.5858051537664949e+01 -1.2619015947323081e+02 0 0 0
1845 74 2 0.0000000000000000e+00 -5.1819155816398830e+00 -9.5595410324321179e+01 -1.2793737231182784e+02 0 0 0
3526 142 3 0.0000000000000000e+00 -3.5150384267801771e+00 -8.3458399190270285e+01 -1.2328396492583207e+02 0 0 0
1840 74 2 0.0000000000000000e+00 -4.2218891159772852e+01 -7.3800909852839169e+01 -1.2696922388412389e+02 0 0 0
1842 74 2 0.0000000000000000e+00 -2.7973445913599747e+01 -8.1575890811491647e+01 -1.3316831679345037e+02 0 0 0
1841 74 2 0.0000000000000000e+00 -3.3357876546556327e+01 -7.4522307037706838e+01 -1.2941873176514073e+02 0 0 0
1839 74 2 0.0000000000000000e+00 -5.2204916385982088e+01 -6.8927128034392723e+01 -1.2573375953523488e+02 0 0 0
3270 131 4 0.0000000000000000e+00 -3.0189501705802851e+01 -5.5278909353240898e+01 -1.3480917220743942e+02 0 0 0
1462 59 2 0.0000000000000000e+00 -1.5811669514949578e+01 -5.8666920006681025e+01 -1.3441882451037864e+02 0 0 0
1463 59 1 0.0000000000000000e+00 -6.0439661839468233e+00 -6.1503488306687807e+01 -1.3548610291689081e+02 0 0 0
1464 59 2 0.0000000000000000e+00 -4.5316066753253081e-01 -6.2781856184779912e+01 -1.2706508684730103e+02 0 0 0
1836 74 2 0.0000000000000000e+00 -6.5452025225489606e+01 -4.5725288216124596e+01 -1.2553371547396259e+02 0 0 0
1166 47 2 0.0000000000000000e+00 -4.2380899745436807e+01 -4.8141172166412453e+01 -1.2824172018015639e+02 0 0 0
3271 131 4 0.0000000000000000e+00 -2.9481287896070747e+01 -4.5235377596663277e+01 -1.3370984120567707e+02 0 0 0
1461 59 2 0.0000000000000000e+00 -2.1695371924234951e+01 -5.0778716663451334e+01 -1.3700709891851065e+02 0 0 0
3263 131 3 0.0000000000000000e+00 -2.1505254773086877e+00 -5.3335472078190868e+01 -1.2965987839580777e+02 0 0 0
1835 74 2 0.0000000000000000e+00 -6.8196990691709672e+01 -3.6459737007097949e+01 -1.2858985856897746e+02 0 0 0
267 11 2 0.0000000000000000e+00 -5.5667470693480219e+01 -3.5694365713303370e+01 -1.2855333765224441e+02 0 0 0
268 11 2 0.0000000000000000e+00 -5.8373588820943731e+01 -2.8732159166873043e+01 -1.3563646732555046e+02 0 0 0
1167 47 2 0.0000000000000000e+00 -4.5694459050621234e+01 -3.9239807830206104e+01 -1.2642616141763546e+02 0 0 0
54 3 2 0.0000000000000000e+00 -1.4380304168341585e+01 -3.4986739801154549e+01 -1.3399994895539604e+02 0 0 0
53 3 2 0.0000000000000000e+00 -4.9925095598609719e+00 -3.7353134114460588e+01 -1.3278816884684170e+02 0 0 0
3527 142 4 0.0000000000000000e+00 -1.0037107072616765e+01 -8.5110333752414277e+01 -1.1569979971293196e+02 0 0 0
2395 96 2 0.0000000000000000e+00 -1.1246127672659543e+02 -8.1312341193539524e+01 -1.1585143657668934e+02 0 0 0
2394 96 1 0.0000000000000000e+00 -1.0991472942867580e+02 -7.3573608616699332e+01 -1.0959321037815656e+02 0 0 0
4395 176 4 0.0000000000000000e+00 -4.5797152542943245e+01 -6.9187102177120096e+01 -1.1740005845451412e+02 0 0 0
4397 176 4 0.0000000000000000e+00 -2.9184081707029748e+01 -7.3100562417584555e+01 -1.1949514531612711e+02 0 0 0
4398 176 4 0.0000000000000000e+00 -2.0842189185174444e+01 -7.7591232686390740e+01 -1.1729317445401647e+02 0 0 0
4399 176 4 0.0000000000000000e+00 -1.1921169230619112e+01 -7.4804070129624691e+01 -1.1266363378769420e+02 0 0 0
4400 176 3 0.0000000000000000e+00 -3.1178074690440702e+00 -7.5228105733004938e+01 -1.1645847289232967e+02 0 0 0
1838 74 1 0.0000000000000000e+00 -5.6549816412908307e+01 -6.0655018345586804e+01 -1.2217927625295256e+02 0 0 0
4394 176 3 0.0000000000000000e+00 -5.5043212840107856e+01 -6.7297299895145954e+01 -1.1309429650175991e+02 0 0 0
4393 176 4 0.0000000000000000e+00 -6.1172556437628614e+01 -5.9469801141258507e+01 -1.1269261994670879e+02 0 0 0
4396 176 4 0.0000000000000000e+00 -3.6708442195433697e+01 -6.6724316757704102e+01 -1.2141563287988373e+02 0 0 0
1164 47 2 0.0000000000000000e+00 -2.9338562415985908e+01 -5.8549773476234144e+01 -1.1999884272020211e+02 0 0 0
1837 74 2 0.0000000000000000e+00 -6.4626307587566529e+01 -5.4750830674418978e+01 -1.2075087396807065e+02 0 0 0
4392 176 4 0.0000000000000000e+00 -5.6602830811905967e+01 -5.1058293527889582e+01 -1.1022269691607899e+02 0 0 0
265 11 2 0.0000000000000000e+00 -6.5834646706609021e+01 -4.3624024018847486e+01 -1.1379342648877559e+02 0 0 0
1165 47 2 0.0000000000000000e+00 -3.4633154013947475e+01 -5.0862027162456023e+01 -1.2290729320798465e+02 0 0 0
1163 47 1 0.0000000000000000e+00 -2.7523012024860709e+01 -5.1025748881368692e+01 -1.1382502762467345e+02 0 0 0
3262 131 4 0.0000000000000000e+00 2.8974958164998754e+00 -5.2910547941245483e+01 -1.2048474578039831e+02 0 0 0
3261 131 4 0.0000000000000000e+00 5.4575738422181763e-01 -4.7205923745234138e+01 -1.1242131724423464e+02 0 0 0
266 11 2 0.0000000000000000e+00 -5.8432801859230821e+01 -3.9947805222248995e+01 -1.1958929576186101e+02 0 0 0
1168 47 2 0.0000000000000000e+00 -4.8579669393826116e+01 -3.0429052284634917e+01 -1.2192615507378787e+02 0 0 0
3260 131 4 0.0000000000000000e+00 -3.5852052643623029e+00 -3.8239233842708650e+01 -1.1398985461017693e+02 0 0 0
251 11 1 0.0000000000000000e+00 -1.0133878214910521e+02 -1.3599869073665960e+02 -1.0252938634236237e+02 0 0 0
252 11 2 0.0000000000000000e+00 -9.9203461667160397e+01 -1.2693541333963601e+02 -1.0074942748003063e+02 0 0 0
253 11 2 0.0000000000000000e+00 -9.6387097687758597e+01 -1.1790868536225135e+02 -9.7515431722745774e+01 0 0 0
2398 96 2 0.0000000000000000e+00 -1.0916862929350181e+02 -1.0276051013030406e+02 -9.8561111432501406e+01 0 0 0
2396 96 2 0.0000000000000000e+00 -1.1373090183633360e+02 -8.5893627632602843e+01 -1.0721313290293948e+02 0 0 0
2397 96 2 0.0000000000000000e+00 -1.0824515586348497e+02 -9.4041946294308062e+01 -1.0383913204120086e+02 0 0 0
4378 176 4 0.0000000000000000e+00 -1.0520658933256667e+02 -8.5346837638821512e+01 -9.9217263333198062e+01 0 0 0
3529 142 4 0.0000000000000000e+00 -1.6772621224760410e+01 -8.3479908802307591e+01 -9.9828921069309800e+01 0 0 0
3528 142 4 0.0000000000000000e+00 -8.4153723375838645e+00 -8.5045954430121256e+01 -1.0596169355080322e+02 0 0 0
70 3 2 0.0000000000000000e+00 2.1239539826584317e+00 -8.5371846637693324e+01 -1.0595926777416653e+02 0 0 0
71 3 2 0.0000000000000000e+00 3.2285536370111640e+00 -8.7696639343900173e+01 -9.6596777541952392e+01 0 0 0
4377 176 4 0.0000000000000000e+00 -1.0253947907662156e+02 -7.7018823016521026e+01 -1.0413404350271728e+02 0 0 0
2393 96 2 0.0000000000000000e+00 -1.1014544221517009e+02 -6.3447566967318359e+01 -1.0722064529753511e+02 0 0 0
4376 176 3 0.0000000000000000e+00 -1.0081318031301598e+02 -6.7444117637870306e+01 -1.0742252734695199e+02 0 0 0
4871 195 4 0.0000000000000000e+00 2.3169537856609779e+00 -6.5862195955354693e+01 -1.0625739376258169e+02 0 0 0
2390 96 2 0.0000000000000000e+00 -1.2504901040161242e+02 -4.4056727339723103e+01 -9.6415594599332422e+01 0 0 0
2391 96 2 0.0000000000000000e+00 -1.1710356805338607e+02 -4.9467345888829421e+01 -9.8385022188180784e+01 0 0 0
2392 96 2 0.0000000000000000e+00 -1.1352708880198499e+02 -5.3981687600779345e+01 -1.0677983256123862e+02 0 0 0
264 11 2 0.0000000000000000e+00 -6.8828848994282922e+01 -4.9315503614117723e+01 -1.0625172204410524e+02 0 0 0
263 11 1 0.0000000000000000e+00 -7.3906746647782512e+01 -4.3596365149962331e+01 -9.9815011671748138e+01 0 0 0
3082 124 3 0.0000000000000000e+00 -6.3416607492814748e+01 -4.6929367501745610e+01 -9.8072781155576678e+01 0 0 0
4391 176 4 0.0000000000000000e+00 -5.1977995487649650e+01 -4.3514947860568419e+01 -1.0485765929475374e+02 0 0 0
1162 47 2 0.0000000000000000e+00 -2.8113123638519561e+01 -4.2065722115306635e+01 -1.0789390254115762e+02 0 0 0
3091 124 4 0.0000000000000000e+00 -4.5996717581617750e+00 -4.8677373884158207e+01 -9.9478879671227418e+01 0 0 0
3071 123 4 0.0000000000000000e+00 -9.6898363011352316e+01 -3.2813362255146906e+01 -9.9340095329303935e+01 0 0 0
3070 123 4 0.0000000000000000e+00 -9.6008865098721358e+01 -2.7370640500853110e+01 -1.0731916109851979e+02 0 0 0
3084 124 4 0.0000000000000000e+00 -5.8306761256238026e+01 -3.1105136234357399e+01 -1.0271438110550540e+02 0 0 0
3083 124 4 0.0000000000000000e+00 -6.2693884814006154e+01 -3.6985454703865962e+01 -9.6295804789436090e+01 0 0 0
4390 176 4 0.0000000000000000e+00 -5.0688190804851850e+01 -3.7256725033370394e+01 -9.6903318461835440e+01 0 0 0
3085 124 4 0.0000000000000000e+00 -4.9035955814251309e+01 -2.8093875174659903e+01 -1.0383497896947510e+02 0 0 0
3086 124 4 0.0000000000000000e+00 -3.8986331243949010e+01 -2.9916685881821639e+01 -1.0553041831904908e+02 0 0 0
1161 47 2 0.0000000000000000e+00 -3.2458161436248119e+01 -3.7879865064742674e+01 -9.9737188136582958e+01 0 0 0
3089 124 4 0.0000000000000000e+00 -1.9028900377787743e+01 -3.5383061125964687e+01 -1.0396265338776109e+02 0 0 0
3090 124 4 0.0000000000000000e+00 -1.0732660026450063e+01 -4.0726191804742129e+01 -1.0120391852004390e+02 0 0 0
2794 112 3 0.0000000000000000e+00 1.3281445927429643e+00 -3.1931462144068405e+01 -9.8204673158495837e+01 0 0 0
3259 131 4 0.0000000000000000e+00 4.2794597392554863e+00 -3.7016871272386815e+01 -1.0812611555590748e+02 0 0 0
4152 167 4 0.0000000000000000e+00 -1.0456865860028120e+02 -1.4270751520631359e+02 -8.8569634567694152e+01 0 0 0
4153 167 4 0.0000000000000000e+00 -1.0128783555378274e+02 -1.5129086049291379e+02 -8.4381339523336663e+01 0 0 0
4151 167 3 0.0000000000000000e+00 -1.0816754080642453e+02 -1.3426242014593399e+02 -9.3492693627620000e+01 0 0 0
2400 96 1 0.0000000000000000e+00 -1.1598671119264692e+02 -1.1187555254502519e+02 -8.2922355866797304e+01 0 0 0
4946 198 4 0.0000000000000000e+00 -7.7774808058325590e+01 -1.1200410268281890e+02 -8.2892368775053313e+01 0 0 0
2399 96 2 0.0000000000000000e+00 -1.1083326697328313e+02 -1.0871439297114998e+02 -9.1158577943971238e+01 0 0 0
254 11 2 0.0000000000000000e+00 -9.6493823070384508e+01 -1.0851574502417552e+02 -9.3301864259718968e+01 0 0 0
255 11 2 0.0000000000000000e+00 -9.2697688430440067e+01 -9.9187712747121239e+01 -8.9763674050773886e+01 0 0 0
4947 198 4 0.0000000000000000e+00 -8.0636558609569377e+01 -1.0278862520035423e+02 -8.1229050418286505e+01 0 0 0
1876 76 1 0.0000000000000000e+00 -5.0807175631239602e+01 -1.0293720684578005e+02 -9.0699923228627355e+01 0 0 0
1877 76 2 0.0000000000000000e+00 -4.3517018531877639e+01 -1.0582341287883489e+02 -8.4084022185213215e+01 0 0 0
4625 185 3 0.0000000000000000e+00 -4.0471475699862665e+01 -9.7525949694926126e+01 -9.0354470969880893e+01 0 0 0
1878 76 2 0.0000000000000000e+00 -3.4331671068739546e+01 -1.0881942112156838e+02 -8.3153363071637870e+01 0 0 0
4379 176 4 0.0000000000000000e+00 -1.1071254782173361e+02 -8.8462015458842885e+01 -9.1066263102310430e+01 0 0 0
4380 176 4 0.0000000000000000e+00 -1.1383236722120436e+02 -8.6985056469334296e+01 -8.1302556131700797e+01 0 0 0
256 11 2 0.0000000000000000e+00 -9.1714646831470148e+01 -9.2027902602682076e+01 -8.3592464106783311e+01 0 0 0
1935 78 2 0.0000000000000000e+00 -6.6824476132309144e+01 -8.5446080657407904e+01 -8.1030140148119187e+01 0 0 0
4624 185 4 0.0000000000000000e+00 -3.2231872621224078e+01 -9.2473814255976137e+01 -8.8305186634377520e+01 0 0 0
3532 142 3 0.0000000000000000e+00 -2.3135317964473277e+01 -8.6049642770801668e+01 -8.5855296340320422e+01 0 0 0
3533 142 4 0.0000000000000000e+00 -1.3474722831025005e+01 -8.7899714588810056e+01 -8.2908943881268513e+01 0 0 0
72 3 2 0.0000000000000000e+00 2.0860954989693310e+00 -9.2781610550170356e+01 -8.8219836399889630e+01 0 0 0
3534 142 4 0.0000000000000000e+00 -4.1085143022386452e+00 -8.7015335024462246e+01 -8.5147965656363112e+01 0 0 0
258 11 2 0.0000000000000000e+00 -9.4756339186940494e+01 -7.3127917738461946e+01 -8.5452596535595447e+01 0 0 0
257 11 1 0.0000000000000000e+00 -9.0604212608671730e+01 -8.2437449703370376e+01 -8.2160951535879192e+01 0 0 0
3531 142 4 0.0000000000000000e+00 -3.0570601914566883e+01 -8.1423239796105875e+01 -9.0901976735349564e+01 0 0 0
3530 142 4 0.0000000000000000e+00 -2.1703991527791242e+01 -7.7892557379701287e+01 -9.3183876064269555e+01 0 0 0
593 24 2 0.0000000000000000e+00 -1.1017464193432068e+02 -6.2396213261951068e+01 -8.1186332803735297e+01 0 0 0
259 11 2 0.0000000000000000e+00 -9.1816139788143857e+01 -6.2921754343958952e+01 -8.2942600044757029e+01 0 0 0
4869 195 3 0.0000000000000000e+00 5.9768565959106561e-02 -5.8200263227984763e+01 -9.0436541355739408e+01 0 0 0
592 24 2 0.0000000000000000e+00 -1.1263913274022650e+02 -5.4413602512495231e+01 -8.7084001265986643e+01 0 0 0
591 24 2 0.0000000000000000e+00 -1.1217639318192523e+02 -4.4808885891512695e+01 -8.3314770700644900e+01 0 0 0
3073 123 4 0.0000000000000000e+00 -9.9110549639062270e+01 -4.2432109050909894e+01 -8.2599064545176233e+01 0 0 0
260 11 2 0.0000000000000000e+00 -8.8743785952690089e+01 -5.2848541878073554e+01 -8.1374430419300481e+01 0 0 0
261 11 2 0.0000000000000000e+00 -8.2932351187690429e+01 -4.5069544639304269e+01 -8.1259843220524388e+01 0 0 0
262 11 2 0.0000000000000000e+00 -7.8670896000134178e+01 -4.3391036717402109e+01 -9.0266623964423275e+01 0 0 0
3081 124 4 0.0000000000000000e+00 -6.6173881046276435e+01 -4.7031115111721867e+01 -8.8332799697423312e+01 0 0 0
1158 47 2 0.0000000000000000e+00 -4.3973214759030924e+01 -4.4097592291183091e+01 -8.4133845154753601e+01 0 0 0
4868 195 4 0.0000000000000000e+00 -1.0979759308344674e+00 -4.8656348892121940e+01 -8.8519552366493670e+01 0 0 0
3173 127 4 0.0000000000000000e+00 -1.4316302243995958e+02 -2.7606276389810905e+01 -9.0413375950776782e+01 0 0 0
2389 96 2 0.0000000000000000e+00 -1.3167387557058242e+02 -3.8664868698186439e+01 -9.1019601285356345e+01 0 0 0
2388 96 1 0.0000000000000000e+00 -1.2653728281777961e+02 -3.0667839532487914e+01 -9.1143732581002695e+01 0 0 0
2387 96 2 0.0000000000000000e+00 -1.1691079069075919e+02 -2.8007651702341068e+01 -9.0485233058111405e+01 0 0 0
3072 123 4 0.0000000000000000e+00 -9.6848685913641305e+01 -3.7641324333391005e+01 -9.0998200824935211e+01 0 0 0
3080 124 4 0.0000000000000000e+00 -6.6860508832529092e+01 -4.0869771411016032e+01 -8.0977490500563405e+01 0 0 0
4389 176 4 0.0000000000000000e+00 -5.2829684530365114e+01 -3.9968381147616874e+01 -8.7501733555007121e+01 0 0 0
1159 47 2 0.0000000000000000e+00 -4.4615088337907167e+01 -3.3458825926861337e+01 -8.4632377552627617e+01 0 0 0
1160 47 2 0.0000000000000000e+00 -3.9361155815057614e+01 -3.6613301853363645e+01 -9.2497247318288700e+01 0 0 0
2153 87 2 0.0000000000000000e+00 -1.6702672635640614e+01 -4.0261989694619011e+01 -8.3781691990164688e+01 0 0 0
2151 87 1 0.0000000000000000e+00 1.9401505286843206e+00 -3.8089154276447097e+01 -8.8662233259468110e+01 0 0 0
2152 87 2 0.0000000000000000e+00 -7.4917299997728906e+00 -3.8114272816825363e+01 -8.6489312441988034e+01 0 0 0
2795 112 4 0.0000000000000000e+00 -7.1147036317225183e+00 -2.7563167293412242e+01 -9.3081916855937294e+01 0 0 0
4155 167 4 0.0000000000000000e+00 -1.1012670940594829e+02 -1.4054657740646462e+02 -7.4887555285096127e+01 0 0 0
4154 167 4 0.0000000000000000e+00 -1.0392921805234353e+02 -1.4855961764500640e+02 -7.5349741391844148e+01 0 0 0
1950 78 1 0.0000000000000000e+00 -9.4429177522481851e+00 -1.3884975583742323e+02 -7.3683858730566413e+01 0 0 0
4156 167 4 0.0000000000000000e+00 -1.1283858333066505e+02 -1.3117668061949473e+02 -7.3731723428066147e+01 0 0 0
1942 78 2 0.0000000000000000e+00 -7.7032661636570978e+01 -1.3392667436727288e+02 -6.7675315599415228e+01 0 0 0
1943 78 2 0.0000000000000000e+00 -6.7241754855456492e+01 -1.2998551899783627e+02 -6.8758954011148560e+01 0 0 0
1949 78 2 0.0000000000000000e+00 -1.6877563954442873e+01 -1.3566643899858030e+02 -6.7808272032130176e+01 0 0 0
3276 132 3 0.0000000000000000e+00 -2.9358502978028032e+00 -1.3210607398516055e+02 -6.7379985746893198e+01 0 0 0
4157 167 3 0.0000000000000000e+00 -1.1368921410497701e+02 -1.2203040538383476e+02 -7.9207750939393165e+01 0 0 0
4158 167 4 0.0000000000000000e+00 -1.0592154640209442e+02 -1.1679076394774269e+02 -7.6035722834530389e+01 0 0 0
4159 167 4 0.0000000000000000e+00 -9.7510943884928295e+01 -1.1136145532409735e+02 -7.4664721983800149e+01 0 0 0
1940 78 2 0.0000000000000000e+00 -8.8779514371375072e+01 -1.2459357613425236e+02 -7.0881023230614787e+01 0 0 0
1939 78 2 0.0000000000000000e+00 -8.4866654330864350e+01 -1.1534471402285399e+02 -6.9527320010497093e+01 0 0 0
4945 198 4 0.0000000000000000e+00 -7.7029968133642939e+01 -1.1967570197462778e+02 -7.6654022369798213e+01 0 0 0
4944 198 3 0.0000000000000000e+00 -7.2291587967179211e+01 -1.1646381302082169e+02 -6.8411232816650269e+01 0 0 0
3976 160 3 0.0000000000000000e+00 -6.1794905498596528e+01 -1.1787035922594031e+02 -6.9455225507724265e+01 0 0 0
1880 76 2 0.0000000000000000e+00 -2.4946593126738783e+01 -1.1839781213215063e+02 -7.4042064785633443e+01 0 0 0
2361 95 2 0.0000000000000000e+00 -1.4753813768463804e+01 -1.1523179562894151e+02 -6.7562868638194431e+01 0 0 0
4160 167 4 0.0000000000000000e+00 -8.9638704125359453e+01 -1.0471456912599220e+02 -7.2666702642915055e+01 0 0 0
1938 78 1 0.0000000000000000e+00 -7.8630670064331341e+01 -1.0768271872020632e+02 -6.8409521245210172e+01 0 0 0
1937 78 2 0.0000000000000000e+00 -7.3907579347087378e+01 -9.8732182959417116e+01 -6.8617598304202005e+01 0 0 0
3977 160 4 0.0000000000000000e+00 -5.9255489265998193e+01 -1.0838730107030061e+02 -7.0105381126325511e+01 0 0 0
3978 160 4 0.0000000000000000e+00 -6.2215199783965410e+01 -9.8973229623053797e+01 -7.0300215998738082e+01 0 0 0
4679 188 4 0.0000000000000000e+00 -4.6231897301395094e+01 -1.0022041134586952e+02 -6.8422909555626660e+01 0 0 0
1879 76 2 0.0000000000000000e+00 -2.7097202295270307e+01 -1.0854412078248326e+02 -7.5966363069727706e+01 0 0 0
2360 95 2 0.0000000000000000e+00 -1.0639134466664776e+01 -1.0673271518077441e+02 -7.1433758607859389e+01 0 0 0
4621 185 4 0.0000000000000000e+00 -1.7948019035532742e+01 -1.0134716625773079e+02 -6.7948328394104649e+01 0 0 0
4948 198 4 0.0000000000000000e+00 -8.2754833340416596e+01 -9.3751170015672415e+01 -7.8205202968369164e+01 0 0 0
4949 198 4 0.0000000000000000e+00 -9.1005828639355244e+01 -9.2770187517220180e+01 -7.1985112937476842e+01 0 0 0
4950 198 3 0.0000000000000000e+00 -9.3983875035941196e+01 -8.3105991342507522e+01 -7.1459761220714171e+01 0 0 0
1936 78 2 0.0000000000000000e+00 -7.0246826741756323e+01 -9.4097556306258781e+01 -7.6706131481657025e+01 0 0 0
3979 160 4 0.0000000000000000e+00 -6.1771924048952144e+01 -8.9205193446327428e+01 -6.8163483943282415e+01 0 0 0
4678 188 4 0.0000000000000000e+00 -4.6141517944364672e+01 -9.0347589642926209e+01 -6.7940868972943846e+01 0 0 0
4623 185 4 0.0000000000000000e+00 -3.1073827642881906e+01 -9.4732712812088920e+01 -7.8109733962581231e+01 0 0 0
4622 185 4 0.0000000000000000e+00 -2.5633707812512611e+01 -9.5688657987065653e+01 -6.9506040213299826e+01 0 0 0
2357 95 1 0.0000000000000000e+00 -2.4799774919238057e+01 -8.3733022548952590e+01 -7.4934845147267396e+01 0 0 0
2359 95 2 0.0000000000000000e+00 -1.0997105937391110e+01 -9.6265884115807083e+01 -7.2341378252572653e+01 0 0 0
2358 95 2 0.0000000000000000e+00 -1.5841863530820138e+01 -8.6976816760988100e+01 -7.2569650632908775e+01 0 0 0
73 3 2 0.0000000000000000e+00 8.6705825393075897e-01 -9.4533677367699582e+01 -7.8185630266481056e+01 0 0 0
74 3 2 0.0000000000000000e+00 -1.7758251661798061e+00 -9.0984983719374299e+01 -6.9251552440025023e+01 0 0 0
4381 176 4 0.0000000000000000e+00 -1.1208205911658578e+02 -7.8607473340479672e+01 -7.5534093136306581e+01 0 0 0
4382 176 3 0.0000000000000000e+00 -1.0370196214438414e+02 -7.3992822858637140e+01 -7.1872263561709246e+01 0 0 0
4383 176 4 0.0000000000000000e+00 -9.4329508621571605e+01 -7.0771876045695251e+01 -7.5283023935662314e+01 0 0 0
1934 78 2 0.0000000000000000e+00 -6.8807697777478538e+01 -7.5409709923686464e+01 -7.9379477473789393e+01 0 0 0
3883 156 4 0.0000000000000000e+00 -3.7598012542098104e+01 -7.1994722772069707e+01 -7.5284809006616840e+01 0 0 0
3884 156 4 0.0000000000000000e+00 -2.8603246713702337e+01 -7.1075612131815816e+01 -7.9063214040221311e+01 0 0 0
2356 95 2 0.0000000000000000e+00 -2.6554258587111569e+01 -7.6381714733597093e+01 -6.8708209292969102e+01 0 0 0
594 24 1 0.0000000000000000e+00 -1.1140501244627590e+02 -6.6240960065552343e+01 -7.1838777311849171e+01 0 0 0
4384 176 4 0.0000000000000000e+00 -8.4993361031196130e+01 -6.6494253381466280e+01 -7.7594738196478829e+01 0 0 0
1933 78 2 0.0000000000000000e+00 -6.9809912919201565e+01 -6.8704075396303367e+01 -7.1271641159966464e+01 0 0 0
4385 176 4 0.0000000000000000e+00 -7.4892541038453444e+01 -6.3850391344457137e+01 -8.0262056286750862e+01 0 0 0
1663 67 1 0.0000000000000000e+00 -7.2835235592776129e+01 -5.7296228797252745e+01 -6.9672297984309665e+01 0 0 0
3882 156 3 0.0000000000000000e+00 -4.0540949566136618e+01 -6.2376489535548068e+01 -7.2786190940449885e+01 0 0 0
3881 156 4 0.0000000000000000e+00 -3.2381051025406812e+01 -5.7130751204997594e+01 -6.9757734043621440e+01 0 0 0
3886 156 4 0.0000000000000000e+00 -1.5400465111795299e+01 -5.7675152500038131e+01 -7.8704629914312306e+01 0 0 0
3885 156 4 0.0000000000000000e+00 -2.0867640437104292e+01 -6.5371290808612557e+01 -7.9401359543722563e+01 0 0 0
3880 156 4 0.0000000000000000e+00 -2.2810034479293954e+01 -6.0381121209959005e+01 -6.6795185410280155e+01 0 0 0
3887 156 4 0.0000000000000000e+00 -5.9229537370413343e+00 -5.8838999200398575e+01 -7.5446798941083117e+01 0 0 0
3888 156 3 0.0000000000000000e+00 -3.6321602674417122e+00 -6.5365423444716967e+01 -6.7677001717358792e+01 0 0 0
4386 176 4 0.0000000000000000e+00 -6.9961531633522284e+01 -5.5092659786242592e+01 -8.0078323562310473e+01 0 0 0
4388 176 3 0.0000000000000000e+00 -5.7041014419060708e+01 -4.4385163220376825e+01 -7.9163283386221082e+01 0 0 0
4387 176 4 0.0000000000000000e+00 -6.4299284916680946e+01 -4.9136804038677198e+01 -7.4657627241907051e+01 0 0 0
1157 47 1 0.0000000000000000e+00 -4.6883701940093182e+01 -4.6932565879146438e+01 -7.4643168615545605e+01 0 0 0
4571 183 4 0.0000000000000000e+00 -2.0918501407467623e+01 -4.7899389088616260e+01 -6.6981468267593542e+01 0 0 0
4570 183 4 0.0000000000000000e+00 -1.1861482464053486e+01 -4.8056162174214563e+01 -7.0572949392863634e+01 0 0 0
4569 183 3 0.0000000000000000e+00 -1.9165240749778869e+00 -4.8399495778813964e+01 -7.2104818522041242e+01 0 0 0
4568 183 4 0.0000000000000000e+00 3.0399173643477666e+00 -5.4709009076119955e+01 -7.8550153145709260e+01 0 0 0
590 24 2 0.0000000000000000e+00 -1.1415613506672827e+02 -3.5720125519157968e+01 -8.0425111059560706e+01 0 0 0
589 24 2 0.0000000000000000e+00 -1.2077512743655825e+02 -2.8251626242200143e+01 -7.7598474557096793e+01 0 0 0
3074 123 4 0.0000000000000000e+00 -1.0488134093132120e+02 -4.0909772779038150e+01 -7.4562869015233929e+01 0 0 0
1981 80 2 0.0000000000000000e+00 -9.6020596605642012e+01 -3.0017893457287169e+01 -6.7779951449689719e+01 0 0 0
3078 124 4 0.0000000000000000e+00 -8.0729146957819836e+01 -3.3667376171921063e+01 -6.9339834606722007e+01 0 0 0
3079 124 4 0.0000000000000000e+00 -7.4833866313280282e+01 -3.8321634410703901e+01 -7.6286027358961590e+01 0 0 0
4574 183 4 0.0000000000000000e+00 -4.5779674936523278e+01 -3.3169858545541601e+01 -6.6858931535044206e+01 0 0 0
1156 47 2 0.0000000000000000e+00 -5.1377454281530667e+01 -4.0868251869929182e+01 -6.8188354306832792e+01 0 0 0
2154 87 2 0.0000000000000000e+00 -2.4309144991244711e+01 -3.5146514993033207e+01 -8.0004520319434121e+01 0 0 0
603 25 2 0.0000000000000000e+00 -1.3249427626873651e+01 -3.5643986822205349e+01 -7.4280604273931033e+01 0 0 0
602 25 2 0.0000000000000000e+00 -3.2675472303326156e+00 -3.5110688353046946e+01 -7.4306149901832683e+01 0 0 0
1946 78 2 0.0000000000000000e+00 -4.4736250862643359e+01 -1.3940741765305771e+02 -5.8916552570572975e+01 0 0 0
1941 78 2 0.0000000000000000e+00 -8.4944954538752484e+01 -1.2901011462300295e+02 -6.2934079238396706e+01 0 0 0
1944 78 1 0.0000000000000000e+00 -5.8191908336458610e+01 -1.2795697012788418e+02 -6.5534145595222924e+01 0 0 0
3296 132 4 0.0000000000000000e+00 -5.9570163990910160e+01 -1.2640814542965042e+02 -5.4784374588579944e+01 0 0 0
1945 78 2 0.0000000000000000e+00 -5.3516323088249301e+01 -1.3576504859490763e+02 -6.2453295081202704e+01 0 0 0
1883 76 2 0.0000000000000000e+00 -4.1416267887911388e+01 -1.2934710395327792e+02 -5.4446633926552650e+01 0 0 0
1882 76 1 0.0000000000000000e+00 -3.8647705291399667e+01 -1.2544147788869789e+02 -6.2976848405828811e+01 0 0 0
1947 78 2 0.0000000000000000e+00 -3.4684710667635741e+01 -1.3797608005916339e+02 -5.9172737452237008e+01 0 0 0
1948 78 2 0.0000000000000000e+00 -2.4929104049728270e+01 -1.3624582721185811e+02 -6.2132737846568283e+01 0 0 0
2364 95 2 0.0000000000000000e+00 -2.4529160810167969e+01 -1.2688403555263083e+02 -5.3370842920242509e+01 0 0 0
2363 95 1 0.0000000000000000e+00 -1.4833383302300030e+01 -1.2974498997634214e+02 -5.5804200970302347e+01 0 0 0
3278 132 4 0.0000000000000000e+00 -5.5906499323092227e+00 -1.3657547755909246e+02 -5.5751482574987463e+01 0 0 0
3277 132 4 0.0000000000000000e+00 3.6321024552762688e+00 -1.3618941311253212e+02 -6.1195518351801425e+01 0 0 0
4943 198 4 0.0000000000000000e+00 -7.0157044573976208e+01 -1.1521134224190773e+02 -5.8290394547566507e+01 0 0 0
3295 132 4 0.0000000000000000e+00 -5.3104456990033732e+01 -1.2005832541273402e+02 -5.7044402660729034e+01 0 0 0
3294 132 3 0.0000000000000000e+00 -4.3451229440474322e+01 -1.1782732128849894e+02 -5.7059540797183793e+01 0 0 0
1881 76 2 0.0000000000000000e+00 -3.0585389228269417e+01 -1.1983000479512842e+02 -6.5389414874920504e+01 0 0 0
2362 95 2 0.0000000000000000e+00 -1.4118569368306824e+01 -1.2012385494048125e+02 -5.8207865283529223e+01 0 0 0
4161 167 4 0.0000000000000000e+00 -8.3736978191476084e+01 -1.0058012976965189e+02 -6.5886942380916210e+01 0 0 0
4162 167 4 0.0000000000000000e+00 -7.5362667298354339e+01 -9.8952313922675188e+01 -5.9594745036130583e+01 0 0 0
4680 188 4 0.0000000000000000e+00 -4.4506142596553474e+01 -9.9263407125697498e+01 -5.8770827073723297e+01 0 0 0
2371 95 2 0.0000000000000000e+00 -3.7064442219838355e+01 -1.0770641191221337e+02 -5.3970980865341048e+01 0 0 0
3892 156 4 0.0000000000000000e+00 -1.3132296914910787e+01 -1.0018260178608450e+02 -5.3197774101563496e+01 0 0 0
4619 185 3 0.0000000000000000e+00 1.4512017221018856e+00 -9.9973620258364363e+01 -6.4451403705071058e+01 0 0 0
4620 185 4 0.0000000000000000e+00 -8.5827142398580065e+00 -9.9007898054157309e+01 -6.3918665620409669e+01 0 0 0
4925 197 3 0.0000000000000000e+00 -1.9404224145407014e+00 -1.0250221164428125e+02 -5.3145507658832770e+01 0 0 0
4924 197 4 0.0000000000000000e+00 3.1441730037918925e+00 -1.0888858203451127e+02 -5.9079732456385273e+01 0 0 0
4163 167 3 0.0000000000000000e+00 -7.1027917705884420e+01 -8.9988849572002366e+01 -5.6105948796000256e+01 0 0 0
1651 67 1 0.0000000000000000e+00 -5.9983270772676228e+01 -8.9484458058560762e+01 -5.5964415374513052e+01 0 0 0
2375 95 1 0.0000000000000000e+00 -4.3743805918289468e+01 -8.3166802204625242e+01 -5.7519298748145452e+01 0 0 0
3891 156 4 0.0000000000000000e+00 -1.0951418622859196e+01 -9.0740789991168199e+01 -5.6074510784908028e+01 0 0 0
1660 67 2 0.0000000000000000e+00 -9.4652003692226259e+01 -6.9926097911276173e+01 -5.9631786973418677e+01 0 0 0
3980 160 4 0.0000000000000000e+00 -6.1439470368053748e+01 -7.9363129889833218e+01 -6.6671111865818460e+01 0 0 0