LAMMPS data file via write_data, version 5 Jun 2019, timestep = 400000000

5000 atoms
4 atom types
5289 bonds
3 bond types
4600 angles
2 angle types

-2.5000000000000000e+02 2.5000000000000000e+02 xlo xhi
-2.5000000000000000e+02 2.5000000000000000e+02 ylo yhi
-2.5000000000000000e+02 2.5000000000000000e+02 zlo zhi

Masses

1 1000
2 1000
3 1000
4 1000

Pair Coeffs # lj/cut

1 0.18 10
2 0.18 10
3 0.18 10
4 0.18 10

Bond Coeffs # harmonic

1 3 10
2 3 10
3 3 11.22

Angle Coeffs # cosine

1 2
2 2

Atoms # full

54 3 2 0.0000000000000000e+00 -1.5520054515791028e+01 -5.0235170903680476e+01 -1.5961777911617619e+02 0 0 0
3213 129 3 0.0000000000000000e+00 6.4616480847214026e+00 -4.0783820191811699e+00 -1.6716126453372499e+02 0 0 0
462 19 2 0.0000000000000000e+00 -1.8704107638531966e+00 -3.7701635301865215e+00 -1.5611758997011097e+02 0 0 0
53 3 2 0.0000000000000000e+00 -9.0694439882237354e+00 -5.7395479882679602e+01 -1.5490788571630097e+02 0 0 0
52 3 2 0.0000000000000000e+00 -1.0427886108105502e+00 -5.7416237876711236e+01 -1.4915650909322787e+02 0 0 0
55 3 2 0.0000000000000000e+00 -1.3510457757799946e+01 -4.2336326322814237e+01 -1.5378172979615729e+02 0 0 0
56 3 2 0.0000000000000000e+00 -9.8450963729434307e+00 -3.3800690510975883e+01 -1.5052052734073320e+02 0 0 0
461 19 2 0.0000000000000000e+00 -1.0664206589206239e+01 -7.2637313297877295e+00 -1.5193885367212204e+02 0 0 0
460 19 2 0.0000000000000000e+00 -1.6983185590353077e+01 -3.1956475850365718e+00 -1.4559199274493977e+02 0 0 0
4776 192 3 0.0000000000000000e+00 -4.8144975976409611e+01 -4.8963074716814823e+01 -1.3809465452282592e+02 0 0 0
4777 192 4 0.0000000000000000e+00 -5.6364266285343291e+01 -4.4447543288646997e+01 -1.3440550427211028e+02 0 0 0
51 3 1 0.0000000000000000e+00 3.0015445918414971e+00 -5.5112089865276644e+01 -1.4069819598862856e+02 0 0 0
4778 192 4 0.0000000000000000e+00 -5.4555629809569879e+01 -3.5472484795208310e+01 -1.2995869361187647e+02 0 0 0
58 3 2 0.0000000000000000e+00 -2.5233904961886164e+00 -3.1816422284991130e+01 -1.3468276634737319e+02 0 0 0
3205 129 4 0.0000000000000000e+00 -3.2676036508394205e+01 -1.8538532081782794e+01 -1.3833129464303437e+02 0 0 0
3204 129 4 0.0000000000000000e+00 -3.0939080592982076e+01 -2.4196694242456726e+01 -1.3018328167711377e+02 0 0 0
57 3 1 0.0000000000000000e+00 -9.2796996103224441e+00 -2.9440648468919733e+01 -1.4139375849251130e+02 0 0 0
4800 192 3 0.0000000000000000e+00 -5.5163140961817003e+00 -2.1998395290868952e+01 -1.3335301451113472e+02 0 0 0
4799 192 4 0.0000000000000000e+00 3.7278671299120072e+00 -2.1194899845464647e+01 -1.3533426734999807e+02 0 0 0
4462 179 4 0.0000000000000000e+00 -6.6997322364452586e+01 -1.1492053127436380e+01 -1.3369919487391263e+02 0 0 0
3206 129 4 0.0000000000000000e+00 -3.6073009135633605e+01 -9.5267205590322668e+00 -1.4086894107282234e+02 0 0 0
458 19 2 0.0000000000000000e+00 -2.2924610044858099e+01 -1.1131152330144857e+01 -1.3350442636522058e+02 0 0 0
459 19 2 0.0000000000000000e+00 -2.4873629419420684e+01 -3.2087845878829659e+00 -1.3901285615564368e+02 0 0 0
410 17 2 0.0000000000000000e+00 -1.6474699951493275e+01 -3.8250962571103759e+00 -1.2850701913961220e+02 0 0 0
1847 74 2 0.0000000000000000e+00 -3.5363510535321389e+01 -7.6907117837266298e+01 -1.1642625831008530e+02 0 0 0
1848 74 2 0.0000000000000000e+00 -3.8194945350200520e+01 -6.7440508944056958e+01 -1.1655218281712349e+02 0 0 0
1849 74 2 0.0000000000000000e+00 -4.0862878570078543e+01 -5.8671053961166216e+01 -1.2082341210338619e+02 0 0 0
266 11 2 0.0000000000000000e+00 -2.4562194189700531e+01 -6.6127148787202955e+01 -1.1635006360783707e+02 0 0 0
62 3 2 0.0000000000000000e+00 -1.2483375487526096e+00 -6.2870219617325695e+01 -1.1721409404753324e+02 0 0 0
271 11 2 0.0000000000000000e+00 -5.1943637651817866e+01 -4.4323640169579292e+01 -1.1738814763498789e+02 0 0 0
1850 74 1 0.0000000000000000e+00 -4.4846113784078540e+01 -5.2696536717953904e+01 -1.2780005699198945e+02 0 0 0
267 11 2 0.0000000000000000e+00 -2.4428484167647206e+01 -5.6839142810208507e+01 -1.1944047975670193e+02 0 0 0
268 11 2 0.0000000000000000e+00 -2.8048191209397739e+01 -4.8880127304967637e+01 -1.2508144109751429e+02 0 0 0
3270 131 4 0.0000000000000000e+00 -1.7579798375627959e+01 -4.9872608880277404e+01 -1.1563884376150189e+02 0 0 0
61 3 2 0.0000000000000000e+00 -5.3988308608389057e-01 -5.2952307841300431e+01 -1.1739707919172793e+02 0 0 0
273 11 2 0.0000000000000000e+00 -6.9694750141187271e+01 -4.1350892534253099e+01 -1.1513532741046664e+02 0 0 0
272 11 2 0.0000000000000000e+00 -6.0854372243157655e+01 -4.1218743294032059e+01 -1.1955513563730364e+02 0 0 0
4779 192 4 0.0000000000000000e+00 -5.1962507684714147e+01 -3.2316718499340084e+01 -1.2079329593983853e+02 0 0 0
270 11 2 0.0000000000000000e+00 -4.2702330156560770e+01 -4.1022157343758174e+01 -1.1935981216284186e+02 0 0 0
269 11 1 0.0000000000000000e+00 -3.2773232811135301e+01 -4.0930718595408329e+01 -1.2075858343496913e+02 0 0 0
60 3 2 0.0000000000000000e+00 -2.3079735491407583e+00 -4.3421996048491494e+01 -1.1905471249849947e+02 0 0 0
59 3 2 0.0000000000000000e+00 -3.9247214981143470e+00 -3.6333830435320834e+01 -1.2548224016464899e+02 0 0 0
4460 179 4 0.0000000000000000e+00 -5.8786773401646158e+01 -1.8151055454448301e+01 -1.1645078510158113e+02 0 0 0
3203 129 4 0.0000000000000000e+00 -2.2930769982248009e+01 -2.9162972242804084e+01 -1.2481826232893361e+02 0 0 0
1457 59 1 0.0000000000000000e+00 -3.3482857941382015e+01 -1.9504309539205664e+01 -1.1454526288175644e+02 0 0 0
3202 129 4 0.0000000000000000e+00 -1.2750095216825002e+01 -2.9977713368363538e+01 -1.2288713215607071e+02 0 0 0
1000 40 1 0.0000000000000000e+00 -7.7001355980476518e+00 -1.7585686703136950e+01 -1.2019068482213770e+02 0 0 0
456 19 2 0.0000000000000000e+00 -1.9560276097479100e+01 -1.7188833510513607e+01 -1.1534257420340590e+02 0 0 0
3201 129 3 0.0000000000000000e+00 -3.7357174148843808e+00 -2.7549072421199995e+01 -1.1816601528702135e+02 0 0 0
999 40 2 0.0000000000000000e+00 1.6673194845569850e+00 -1.8605915129173962e+01 -1.2262432890610694e+02 0 0 0
1452 59 2 0.0000000000000000e+00 -6.6911196366596641e+01 -9.8656744975246848e+00 -1.1539444095163265e+02 0 0 0
4461 179 4 0.0000000000000000e+00 -6.1230174019279467e+01 -1.4713951474731896e+01 -1.2582061246478257e+02 0 0 0
1453 59 2 0.0000000000000000e+00 -5.6955882354813227e+01 -8.8647803701931949e+00 -1.1718610854056836e+02 0 0 0
1456 59 2 0.0000000000000000e+00 -4.0803759001736822e+01 -1.3029873909959690e+01 -1.1623283344873651e+02 0 0 0
457 19 1 0.0000000000000000e+00 -2.1629115513375471e+01 -1.3807942806155948e+01 -1.2386123082256755e+02 0 0 0
3401 137 3 0.0000000000000000e+00 -2.8281180213792400e+01 -4.5855997383916929e+00 -1.2185922502663068e+02 0 0 0
411 17 2 0.0000000000000000e+00 -7.1353726665033106e+00 -3.1685302006297218e+00 -1.2419147325633777e+02 0 0 0
412 17 2 0.0000000000000000e+00 1.4361876701730565e+00 -5.1093457344616118e+00 -1.1880881558486394e+02 0 0 0
1845 74 2 0.0000000000000000e+00 -5.3536154540635806e+01 -7.3844878951658842e+01 -1.1012547455122406e+02 0 0 0
1846 74 2 0.0000000000000000e+00 -4.3571105862294452e+01 -7.5398056306838683e+01 -1.1099220347482088e+02 0 0 0
265 11 2 0.0000000000000000e+00 -2.0565368413620568e+01 -7.2165412461183010e+01 -1.0945583396509356e+02 0 0 0
1843 74 2 0.0000000000000000e+00 -6.5787811429612304e+01 -6.0118430822991172e+01 -1.0610981692925662e+02 0 0 0
1844 74 1 0.0000000000000000e+00 -6.1002313050148921e+01 -6.7115323999874263e+01 -1.1187492160009032e+02 0 0 0
3275 131 3 0.0000000000000000e+00 -5.0984073220404305e+01 -6.4254938476179277e+01 -1.0795303749997531e+02 0 0 0
3274 131 4 0.0000000000000000e+00 -4.2601712603075804e+01 -5.8618501082529654e+01 -1.0760752098352609e+02 0 0 0
3268 131 4 0.0000000000000000e+00 -9.0235065883928094e+00 -6.4081062551677746e+01 -1.0687054960956885e+02 0 0 0
3269 131 3 0.0000000000000000e+00 -1.6273994512675138e+01 -5.9443310822875738e+01 -1.1233385821522626e+02 0 0 0
63 3 1 0.0000000000000000e+00 3.8664221252340751e+00 -7.0987905450199563e+01 -1.1362971208403643e+02 0 0 0
3267 131 4 0.0000000000000000e+00 1.0621549605388227e+00 -6.2705363079727910e+01 -1.0477493586302768e+02 0 0 0
1842 74 2 0.0000000000000000e+00 -6.3528474920319539e+01 -5.1629369560718850e+01 -1.0086279799173032e+02 0 0 0
3273 131 4 0.0000000000000000e+00 -3.5946123004674639e+01 -5.2426447372855883e+01 -1.0380875117407396e+02 0 0 0
1827 74 2 0.0000000000000000e+00 -2.5842011556133716e+01 -5.6399325900896280e+01 -1.0233448164560376e+02 0 0 0
1826 74 1 0.0000000000000000e+00 -1.5604258830566152e+01 -5.5458088957997091e+01 -1.0178345975481730e+02 0 0 0
274 11 2 0.0000000000000000e+00 -7.5190361784586813e+01 -3.7603900541772056e+01 -1.0789630493371810e+02 0 0 0
275 11 1 0.0000000000000000e+00 -8.4067418424488011e+01 -3.2360814599227631e+01 -1.0965608890771718e+02 0 0 0
3272 131 4 0.0000000000000000e+00 -3.0789586962346213e+01 -4.3654732928146856e+01 -1.0488997120125285e+02 0 0 0
3271 131 4 0.0000000000000000e+00 -2.3941035765999068e+01 -4.2640805610678086e+01 -1.1163335561394402e+02 0 0 0
1459 59 2 0.0000000000000000e+00 -2.0968533216639131e+01 -3.3668006689357455e+01 -1.1307544599031908e+02 0 0 0
1460 59 2 0.0000000000000000e+00 -1.2435061954327969e+01 -3.8888384970795187e+01 -1.1068166239914723e+02 0 0 0
1461 59 2 0.0000000000000000e+00 -6.9436706218344835e+00 -4.3551114566302083e+01 -1.0387142152343480e+02 0 0 0
4872 195 4 0.0000000000000000e+00 6.5985390179674406e+00 -3.3081751547343401e+01 -1.0924982789316449e+02 0 0 0
3061 123 4 0.0000000000000000e+00 -8.7429869827417562e+01 -1.7730428928277860e+01 -1.0296844953594480e+02 0 0 0
4459 179 4 0.0000000000000000e+00 -5.6506468562432026e+01 -2.0674403247983353e+01 -1.0676512261449429e+02 0 0 0
4781 192 4 0.0000000000000000e+00 -3.6340234101427768e+01 -3.0283903504434463e+01 -1.0925027846861764e+02 0 0 0
4780 192 4 0.0000000000000000e+00 -4.5422596041231543e+01 -2.9331331302725747e+01 -1.1437159622880674e+02 0 0 0
1455 59 2 0.0000000000000000e+00 -4.3676355249899935e+01 -1.6946136681025251e+01 -1.0734192630826720e+02 0 0 0
1458 59 2 0.0000000000000000e+00 -2.5382319300427554e+01 -2.4790382829871383e+01 -1.1349107844250332e+02 0 0 0
4782 192 3 0.0000000000000000e+00 -3.2496509189736486e+01 -2.2600511149904275e+01 -1.0408727401198554e+02 0 0 0
455 19 2 0.0000000000000000e+00 -1.5651878493549068e+01 -2.0544512464044232e+01 -1.0702762715996143e+02 0 0 0
3060 123 4 0.0000000000000000e+00 -9.0376302413705162e+01 -9.4314632520502251e+00 -1.0859679322078691e+02 0 0 0
3409 137 4 0.0000000000000000e+00 -8.3124335287891412e+01 -7.7309538923464585e+00 -1.0181914487985885e+02 0 0 0
1451 59 1 0.0000000000000000e+00 -7.5224458181213123e+01 -1.2464038700672678e+01 -1.0947500237700059e+02 0 0 0
1454 59 2 0.0000000000000000e+00 -4.9004777579206049e+01 -9.1788543192839978e+00 -1.1083052960270690e+02 0 0 0
4783 192 4 0.0000000000000000e+00 -2.7162102995280911e+01 -1.4230116492864497e+01 -1.0261364286023891e+02 0 0 0
4784 192 4 0.0000000000000000e+00 -2.0203722429145817e+01 -7.1388784538994425e+00 -1.0425460460721702e+02 0 0 0
68 3 2 0.0000000000000000e+00 -1.0717877407974475e+01 -1.0324996078466368e+02 -9.3859833047940143e+01 0 0 0
67 3 2 0.0000000000000000e+00 -5.1255745231705072e+00 -9.4921824454433647e+01 -9.6055108547862147e+01 0 0 0
66 3 2 0.0000000000000000e+00 1.2855304421049705e+00 -8.7253255128145213e+01 -9.3907932015004249e+01 0 0 0
3170 127 4 0.0000000000000000e+00 -1.0117379448979787e+02 -7.4258029060030580e+01 -9.5584412412059848e+01 0 0 0
3171 127 4 0.0000000000000000e+00 -9.1383283507210706e+01 -7.2234642257868487e+01 -9.7198233224708957e+01 0 0 0
3172 127 4 0.0000000000000000e+00 -8.2789674320555335e+01 -7.2694694643539250e+01 -9.1195865712595563e+01 0 0 0
263 11 1 0.0000000000000000e+00 -2.5142317871524845e+01 -7.8168644044488389e+01 -9.1089830408218319e+01 0 0 0
264 11 2 0.0000000000000000e+00 -1.9327279248936875e+01 -7.7355004538717466e+01 -1.0015291040204018e+02 0 0 0
65 3 2 0.0000000000000000e+00 5.5292451411290235e+00 -7.9116000984220207e+01 -9.8723033313790125e+01 0 0 0
3169 127 3 0.0000000000000000e+00 -1.0749138277119873e+02 -6.9559355231867457e+01 -8.8528109895608054e+01 0 0 0
588 24 1 0.0000000000000000e+00 -1.0021562339737579e+02 -6.2306352216405450e+01 -8.9351412624186011e+01 0 0 0
3067 123 4 0.0000000000000000e+00 -7.9205203986098454e+01 -6.1813311203675809e+01 -8.9195730188471046e+01 0 0 0
3066 123 4 0.0000000000000000e+00 -7.2205287841166822e+01 -6.1935585759022509e+01 -9.7144063390793491e+01 0 0 0
1830 74 2 0.0000000000000000e+00 -5.1161372296086547e+01 -5.8225867826200435e+01 -9.1079388020024425e+01 0 0 0
1829 74 2 0.0000000000000000e+00 -4.2641518435642375e+01 -6.1546427618945174e+01 -9.4695163850366299e+01 0 0 0
1828 74 2 0.0000000000000000e+00 -3.3411362903043894e+01 -5.9515297956734791e+01 -9.6085712089514459e+01 0 0 0
587 24 2 0.0000000000000000e+00 -1.0314604981453247e+02 -5.4568829905070572e+01 -9.5049677330997170e+01 0 0 0
586 24 2 0.0000000000000000e+00 -9.8252350357703293e+01 -4.6014759187784300e+01 -9.2686728473416096e+01 0 0 0
3065 123 4 0.0000000000000000e+00 -7.9155481382237937e+01 -5.5368187593184750e+01 -1.0001053332341365e+02 0 0 0
3064 123 4 0.0000000000000000e+00 -8.1866291810813905e+01 -4.6192111285685527e+01 -1.0037764599958115e+02 0 0 0
1841 74 2 0.0000000000000000e+00 -6.5115384655669757e+01 -5.0577933376349421e+01 -9.0913545131581287e+01 0 0 0
1831 74 2 0.0000000000000000e+00 -5.4247018307910274e+01 -4.9330815410828563e+01 -8.9373658760056713e+01 0 0 0
1462 59 2 0.0000000000000000e+00 -2.5374179541762873e+00 -4.6859079813740195e+01 -9.5288543990175967e+01 0 0 0
3063 123 3 0.0000000000000000e+00 -8.5725882434819340e+01 -3.6351718649668165e+01 -9.9214962920781616e+01 0 0 0
1832 74 1 0.0000000000000000e+00 -5.0578197679175140e+01 -4.0105093350982763e+01 -9.0688980770220994e+01 0 0 0
1834 74 2 0.0000000000000000e+00 -3.4441249244068842e+01 -3.5965777286165149e+01 -9.7260777694276783e+01 0 0 0
1833 74 2 0.0000000000000000e+00 -4.3990575367954634e+01 -3.9401634349698931e+01 -9.8155579100626014e+01 0 0 0
453 19 2 0.0000000000000000e+00 -1.0674606125314543e+01 -3.3929331765058819e+01 -9.2839411214528127e+01 0 0 0
3263 131 3 0.0000000000000000e+00 7.1628821682501365e-01 -3.5034019504415774e+01 -9.0590642778225828e+01 0 0 0
3062 123 4 0.0000000000000000e+00 -8.8144280529690306e+01 -2.6962027766809580e+01 -9.8980091742768394e+01 0 0 0
4458 179 4 0.0000000000000000e+00 -5.3881517373402502e+01 -2.6145255786366615e+01 -9.9033310641846228e+01 0 0 0
4457 179 3 0.0000000000000000e+00 -5.7267008715402739e+01 -3.0244698732810821e+01 -9.0551434621409072e+01 0 0 0
1835 74 2 0.0000000000000000e+00 -3.7022331027451230e+01 -2.6797055118802891e+01 -9.3427434949902576e+01 0 0 0
454 19 2 0.0000000000000000e+00 -1.1543791440284989e+01 -2.5980534414897889e+01 -9.9501201004514925e+01 0 0 0
3262 131 4 0.0000000000000000e+00 -1.9105289303675059e+00 -2.6016317541961044e+01 -8.9009083494203523e+01 0 0 0
3261 131 4 0.0000000000000000e+00 4.9257224883548600e+00 -1.9000726026725506e+01 -8.9871695426217386e+01 0 0 0
3410 137 4 0.0000000000000000e+00 -9.1867766443444438e+01 -3.8439099549997819e+00 -9.9014615655474415e+01 0 0 0
3179 128 4 0.0000000000000000e+00 -2.3131376845912438e+01 -5.2559680828284403e+00 -9.5045780208348319e+01 0 0 0
947 38 2 0.0000000000000000e+00 -4.4111886651384786e+00 -6.3741647845879861e+00 -9.6478815506110379e+01 0 0 0
70 3 2 0.0000000000000000e+00 -1.8106919296453810e+01 -1.1338054345072838e+02 -7.7981859366125406e+01 0 0 0
71 3 2 0.0000000000000000e+00 -8.5059917328652634e+00 -1.1543069294058563e+02 -7.6488340113910127e+01 0 0 0
2395 96 2 0.0000000000000000e+00 -7.2666210910314476e+01 -1.0994340405318452e+02 -7.4323889472599589e+01 0 0 0
69 3 1 0.0000000000000000e+00 -1.5842182465214815e+01 -1.0773367579737122e+02 -8.6092495147958019e+01 0 0 0
4400 176 3 0.0000000000000000e+00 -4.4219615159255650e+00 -1.0808303524753491e+02 -8.5432320378557691e+01 0 0 0
4399 176 4 0.0000000000000000e+00 -4.0410988412966575e-01 -1.0397386894750478e+02 -7.7096098538268706e+01 0 0 0
4151 167 3 0.0000000000000000e+00 -6.8755215488940848e+01 -8.7904635106726673e+01 -7.6084545379235180e+01 0 0 0
260 11 2 0.0000000000000000e+00 -4.0791156557152519e+01 -9.1882520258664087e+01 -7.4681825218034362e+01 0 0 0
4398 176 4 0.0000000000000000e+00 -2.4690350312990050e+00 -9.3757725438850670e+01 -7.4211300806819708e+01 0 0 0
590 24 2 0.0000000000000000e+00 -9.3091291955511480e+01 -7.4647018883950963e+01 -7.7361319015035832e+01 0 0 0
3080 124 4 0.0000000000000000e+00 -4.9894954230409752e+01 -8.4725030871773356e+01 -7.5327890946143228e+01 0 0 0
261 11 2 0.0000000000000000e+00 -3.8250091045362019e+01 -8.4158911259025572e+01 -8.0072476644756719e+01 0 0 0
3081 124 4 0.0000000000000000e+00 -4.4713191147091798e+01 -7.5978877761180556e+01 -7.3867215741138565e+01 0 0 0
262 11 2 0.0000000000000000e+00 -3.3068777191971947e+01 -7.7354426624044081e+01 -8.5780281569488281e+01 0 0 0
3526 142 3 0.0000000000000000e+00 -1.8287592477767074e+01 -8.2571839126739150e+01 -8.2567550810978958e+01 0 0 0
4397 176 4 0.0000000000000000e+00 -4.8014373889106023e+00 -8.4095780684540784e+01 -7.4013605158150384e+01 0 0 0
3168 127 4 0.0000000000000000e+00 -1.1224540393155607e+02 -6.5060418679945258e+01 -8.0948152077691844e+01 0 0 0
3167 127 4 0.0000000000000000e+00 -1.0746869022303123e+02 -5.9584337944723671e+01 -7.4223908676346625e+01 0 0 0
589 24 2 0.0000000000000000e+00 -9.7000889788427386e+01 -7.0409497502814176e+01 -8.5191489983879137e+01 0 0 0
3173 127 4 0.0000000000000000e+00 -8.1789608488169790e+01 -7.0756807478836038e+01 -8.1418690636476555e+01 0 0 0
3068 123 4 0.0000000000000000e+00 -8.7687513869974296e+01 -5.8449147091446591e+01 -8.5514282257901428e+01 0 0 0
1167 47 2 0.0000000000000000e+00 -3.8697876437615257e+01 -6.1185504311013197e+01 -7.5084036807586799e+01 0 0 0
1165 47 2 0.0000000000000000e+00 -2.9731929542623568e+01 -5.9659897869464579e+01 -8.2950234886511851e+01 0 0 0
1164 47 2 0.0000000000000000e+00 -2.2003360306539157e+01 -6.2120390305889281e+01 -7.7182039275868775e+01 0 0 0
3166 127 4 0.0000000000000000e+00 -9.7791460099672477e+01 -5.6651309038068554e+01 -7.4311669571189512e+01 0 0 0
3069 123 3 0.0000000000000000e+00 -8.0904132203582193e+01 -5.3351487580080629e+01 -8.0996441189292085e+01 0 0 0
582 24 1 0.0000000000000000e+00 -8.7131166521472622e+01 -4.6198833190704583e+01 -7.5910802734948788e+01 0 0 0
1840 74 2 0.0000000000000000e+00 -6.0939476326067300e+01 -4.6509527690743226e+01 -8.2341426498779867e+01 0 0 0
1166 47 2 0.0000000000000000e+00 -3.4643806894582639e+01 -5.2588292578509794e+01 -7.7654534866333933e+01 0 0 0
1463 59 1 0.0000000000000000e+00 2.4829250765702593e+00 -4.4981541639105281e+01 -8.6826866786499863e+01 0 0 0
585 24 2 0.0000000000000000e+00 -1.0486882898923524e+02 -4.1857439879540109e+01 -8.6381088982922520e+01 0 0 0
584 24 2 0.0000000000000000e+00 -1.0533243699943830e+02 -4.1061954932230506e+01 -7.6582141395445916e+01 0 0 0
581 24 2 0.0000000000000000e+00 -7.6885248540095077e+01 -4.4080210893234181e+01 -7.5958605512270395e+01 0 0 0
580 24 2 0.0000000000000000e+00 -6.7518585207097559e+01 -3.9479878962666355e+01 -7.4683511534676583e+01 0 0 0
1839 74 2 0.0000000000000000e+00 -5.3623104627535916e+01 -4.3560851067560975e+01 -7.6621670972207696e+01 0 0 0
579 24 2 0.0000000000000000e+00 -5.8442583961979551e+01 -3.5377490718555407e+01 -7.6880785174856513e+01 0 0 0
1837 74 2 0.0000000000000000e+00 -4.0981133706980152e+01 -3.6491329158414445e+01 -7.6265876787224173e+01 0 0 0
1836 74 2 0.0000000000000000e+00 -3.6944360957615601e+01 -3.2042931913133124e+01 -8.4550355753699876e+01 0 0 0
2154 87 2 0.0000000000000000e+00 -2.0618779441828668e+01 -3.3608157087581631e+01 -7.6872189096571475e+01 0 0 0
452 19 2 0.0000000000000000e+00 -8.8575276517479402e+00 -3.5629967034137145e+01 -8.3159212804739624e+01 0 0 0
451 19 1 0.0000000000000000e+00 -9.8779227909773537e-01 -3.7719944320237047e+01 -7.6685167029782932e+01 0 0 0
4456 179 4 0.0000000000000000e+00 -5.9629391076290418e+01 -2.1135498203470320e+01 -8.7150282860943435e+01 0 0 0
578 24 2 0.0000000000000000e+00 -5.0903023690763085e+01 -2.8813658925772298e+01 -7.6254389909800665e+01 0 0 0
577 24 2 0.0000000000000000e+00 -4.7343122722226404e+01 -1.8973032396933348e+01 -7.5242657669931390e+01 0 0 0
3176 128 3 0.0000000000000000e+00 -3.5167379128806601e+01 -1.6967751025324784e+01 -8.5380337455021149e+01 0 0 0
2155 87 2 0.0000000000000000e+00 -2.7271486142053632e+01 -2.5619255494274764e+01 -7.8827927924231929e+01 0 0 0
4454 179 4 0.0000000000000000e+00 -7.3796578893080962e+01 -1.0280852671151262e+01 -8.5625211464366345e+01 0 0 0
4455 179 4 0.0000000000000000e+00 -6.5286915892411216e+01 -1.3773929851685121e+01 -8.2668891580357396e+01 0 0 0
2168 87 2 0.0000000000000000e+00 -7.0446934484947022e+01 -5.7978677453466849e+00 -7.6107092007270992e+01 0 0 0
576 24 1 0.0000000000000000e+00 -3.9431635736442985e+01 -1.3502291259739822e+01 -7.6169598311982696e+01 0 0 0
3177 128 4 0.0000000000000000e+00 -2.9524343223801786e+01 -1.1934022007971210e+01 -7.9430172359507793e+01 0 0 0
3178 128 4 0.0000000000000000e+00 -2.3030635936223383e+01 -6.6282469229137266e+00 -8.4896249164456734e+01 0 0 0
948 38 2 0.0000000000000000e+00 -3.0428188169984249e-01 -6.6255332059857501e+00 -8.6854632687662772e+01 0 0 0
949 38 2 0.0000000000000000e+00 6.2715569740406893e+00 -5.9931216926735473e+00 -7.8760814222440032e+01 0 0 0
2396 96 2 0.0000000000000000e+00 -6.3212956576973575e+01 -1.1327390849794820e+02 -7.2712277007026799e+01 0 0 0
2398 96 2 0.0000000000000000e+00 -5.3202031326233211e+01 -1.1797700137721503e+02 -6.0449864178024356e+01 0 0 0
2397 96 2 0.0000000000000000e+00 -5.3798637107150860e+01 -1.1286393121869318e+02 -6.9171600727682957e+01 0 0 0
2394 96 1 0.0000000000000000e+00 -7.4731833791256165e+01 -1.0102756480372209e+02 -7.0069067065353778e+01 0 0 0
73 3 2 0.0000000000000000e+00 6.9332971232231166e+00 -1.0824313221191426e+02 -6.4487403704044951e+01 0 0 0
72 3 2 0.0000000000000000e+00 -1.1531523117716593e+00 -1.1155112109727447e+02 -6.9807126945941931e+01 0 0 0
592 24 2 0.0000000000000000e+00 -9.2609441971479967e+01 -8.7854395741635628e+01 -6.3438669450141504e+01 0 0 0
2393 96 2 0.0000000000000000e+00 -7.9980481638981630e+01 -9.1976121233100244e+01 -6.8192575289356228e+01 0 0 0
4152 167 4 0.0000000000000000e+00 -6.3596232895152234e+01 -8.7805463152434100e+01 -6.7539796067896589e+01 0 0 0
4153 167 4 0.0000000000000000e+00 -6.1146263803926658e+01 -9.4815480235681676e+01 -6.0860362213223439e+01 0 0 0
3079 124 4 0.0000000000000000e+00 -5.3001011294268338e+01 -8.7822024871957041e+01 -6.6025898407183874e+01 0 0 0
259 11 2 0.0000000000000000e+00 -4.5274459184096109e+01 -9.7474076354939044e+01 -6.7012041971069991e+01 0 0 0
1927 78 2 0.0000000000000000e+00 -3.8414658758228128e+01 -8.6060119403531743e+01 -6.6319565610456252e+01 0 0 0
3527 142 4 0.0000000000000000e+00 -1.9592081913554225e+01 -8.6368602792417434e+01 -7.3396212096209382e+01 0 0 0
3528 142 4 0.0000000000000000e+00 -1.4634278172493653e+01 -8.9693885218943862e+01 -6.5286269862137090e+01 0 0 0
591 24 2 0.0000000000000000e+00 -9.5430650686467914e+01 -7.9820709321206010e+01 -6.8993754117624476e+01 0 0 0
3174 127 4 0.0000000000000000e+00 -8.2364925283962009e+01 -7.6592108541526798e+01 -7.3188729692012032e+01 0 0 0
3175 127 3 0.0000000000000000e+00 -8.6338782066422709e+01 -7.7628157512914825e+01 -6.4269813614921532e+01 0 0 0
2392 96 2 0.0000000000000000e+00 -7.6137996273709007e+01 -8.2703337215424227e+01 -6.6674225156428250e+01 0 0 0
251 11 1 0.0000000000000000e+00 -6.2484555070184101e+01 -7.8681519026608797e+01 -7.2713184818770756e+01 0 0 0
2391 96 2 0.0000000000000000e+00 -7.2052394584920833e+01 -7.6857545423445544e+01 -7.3575615047660278e+01 0 0 0
252 11 2 0.0000000000000000e+00 -6.4657592361557136e+01 -7.3982610892234575e+01 -6.4338782906384381e+01 0 0 0
3082 124 3 0.0000000000000000e+00 -3.7447352761877724e+01 -7.3667452881025184e+01 -6.7251900706391865e+01 0 0 0
1926 78 1 0.0000000000000000e+00 -3.0579189555208931e+01 -8.1917758748438345e+01 -7.0614550841649816e+01 0 0 0
1161 47 2 0.0000000000000000e+00 -2.2315701009339143e+01 -7.6929906213682060e+01 -6.2647482761275086e+01 0 0 0
4396 176 4 0.0000000000000000e+00 2.7972964430282370e+00 -7.8547504141711357e+01 -7.1077989866100083e+01 0 0 0
2386 96 2 0.0000000000000000e+00 -1.0254174951234010e+02 -6.3756410142637712e+01 -6.1116676157087049e+01 0 0 0
2387 96 2 0.0000000000000000e+00 -9.3986713895955759e+01 -6.8294491429617864e+01 -6.5013958744824649e+01 0 0 0
2388 96 1 0.0000000000000000e+00 -8.4418701449068692e+01 -6.6553617571502301e+01 -6.4488454138350818e+01 0 0 0
2390 96 2 0.0000000000000000e+00 -7.2830436056903011e+01 -6.8863379146929830e+01 -6.7194272516588583e+01 0 0 0
1169 47 1 0.0000000000000000e+00 -5.2996280595600851e+01 -6.7001335426333483e+01 -6.2460601704563757e+01 0 0 0
1168 47 2 0.0000000000000000e+00 -4.3430488856333170e+01 -6.5688008874129963e+01 -6.6626100031298790e+01 0 0 0
3083 124 4 0.0000000000000000e+00 -2.8412028823260691e+01 -6.9166896235742584e+01 -6.6753205965184165e+01 0 0 0
1162 47 2 0.0000000000000000e+00 -2.0110241906117466e+01 -6.6645827948751830e+01 -6.2417274700536062e+01 0 0 0
3084 124 4 0.0000000000000000e+00 -2.9096896463597091e+01 -5.9272575575855235e+01 -6.8991558052876641e+01 0 0 0
1163 47 1 0.0000000000000000e+00 -1.5743038352140971e+01 -5.9728378637528159e+01 -6.9344714673239324e+01 0 0 0
4394 176 3 0.0000000000000000e+00 -9.9794008100533986e+00 -6.6533828795543997e+01 -6.2041283858509246e+01 0 0 0
4395 176 4 0.0000000000000000e+00 -3.4755477846450407e+00 -7.1628205625070379e+01 -6.7223947967867517e+01 0 0 0
583 24 2 0.0000000000000000e+00 -9.6842389061806173e+01 -4.4423423462213769e+01 -7.2867092759518769e+01 0 0 0
3165 127 4 0.0000000000000000e+00 -9.2995163333326346e+01 -5.3450038286567853e+01 -6.6139029385017565e+01 0 0 0
3071 123 4 0.0000000000000000e+00 -8.3748787600145050e+01 -5.5052901644693996e+01 -6.0696124308610813e+01 0 0 0
3164 127 4 0.0000000000000000e+00 -8.7047730027141810e+01 -4.5670515910578708e+01 -6.3066157524249263e+01 0 0 0
3070 123 4 0.0000000000000000e+00 -8.1352024858416357e+01 -5.4104564348450673e+01 -7.0819852780998062e+01 0 0 0
2725 109 3 0.0000000000000000e+00 -5.4907438322781125e+01 -5.6249811354044233e+01 -6.4746222960753911e+01 0 0 0
3085 124 4 0.0000000000000000e+00 -2.8454883040462477e+01 -4.8988274369134693e+01 -6.9387294201341220e+01 0 0 0
2075 83 1 0.0000000000000000e+00 -9.0721230073146430e+01 -3.5733936828079713e+01 -6.4988508580703680e+01 0 0 0
3162 127 4 0.0000000000000000e+00 -7.4286059265576441e+01 -3.2668046549105398e+01 -6.4274506198320083e+01 0 0 0
3160 127 4 0.0000000000000000e+00 -6.1551417760970764e+01 -3.1944588864594383e+01 -6.7116497314629896e+01 0 0 0
1838 74 1 0.0000000000000000e+00 -4.7376551824298168e+01 -3.9790584334064839e+01 -6.9747369595208383e+01 0 0 0
3300 132 3 0.0000000000000000e+00 -3.9608562163735229e+01 -3.8411948512195245e+01 -6.2692805431358750e+01 0 0 0
3086 124 4 0.0000000000000000e+00 -2.8541923469406232e+01 -3.8820291676743743e+01 -6.7872506604278144e+01 0 0 0
2153 87 2 0.0000000000000000e+00 -1.6450299867182235e+01 -3.6837157359108261e+01 -6.8199501610864331e+01 0 0 0
2152 87 2 0.0000000000000000e+00 -9.0067125824463332e+00 -3.1156946014753512e+01 -6.5024143604811272e+01 0 0 0
2174 87 2 0.0000000000000000e+00 -1.2192659478768587e+02 -2.2695082277718686e+01 -6.1914185519000398e+01 0 0 0
2173 87 2 0.0000000000000000e+00 -1.1340606029372454e+02 -1.7846858882346403e+01 -6.3635595103340684e+01 0 0 0
3161 127 4 0.0000000000000000e+00 -6.9280566880156186e+01 -2.7584778756284503e+01 -7.1655123340568224e+01 0 0 0
3159 127 4 0.0000000000000000e+00 -6.3210653937985491e+01 -2.4332899925005083e+01 -6.1788480731578673e+01 0 0 0
2705 109 4 0.0000000000000000e+00 -3.6017338006659429e+01 -2.0096763182042043e+01 -6.2515690429408060e+01 0 0 0
3087 124 4 0.0000000000000000e+00 -2.4271665939092809e+01 -2.9899432399541929e+01 -6.7040059603620904e+01 0 0 0
2156 87 2 0.0000000000000000e+00 -2.6885956822662486e+01 -1.9133695515117282e+01 -7.0108646983967148e+01 0 0 0
3088 124 3 0.0000000000000000e+00 -1.9903863934083205e+01 -2.4210207745408717e+01 -6.0218147894883394e+01 0 0 0
2794 112 3 0.0000000000000000e+00 4.8916735727945415e+00 -1.8721742116211665e+01 -7.3177799133509467e+01 0 0 0
2151 87 1 0.0000000000000000e+00 -4.8399413966882143e-01 -2.5702495728575734e+01 -6.6302657652907484e+01 0 0 0
2172 87 2 0.0000000000000000e+00 -1.0494343308106356e+02 -1.5518718746047437e+01 -6.8282663676506260e+01 0 0 0
2171 87 2 0.0000000000000000e+00 -9.6812111208158342e+01 -9.8520177278013481e+00 -7.0116474745470370e+01 0 0 0
2169 87 1 0.0000000000000000e+00 -7.8463229353817511e+01 -1.0898614252348871e+01 -7.2875346814033620e+01 0 0 0
2170 87 2 0.0000000000000000e+00 -8.7280514291756475e+01 -6.3025459040607243e+00 -7.1659616439773984e+01 0 0 0
3158 127 4 0.0000000000000000e+00 -6.6527881425183566e+01 -1.4910798389727185e+01 -6.1025223409477881e+01 0 0 0
3157 127 3 0.0000000000000000e+00 -7.1245792881373703e+01 -7.9386538026339339e+00 -6.5394455810458439e+01 0 0 0
2703 109 4 0.0000000000000000e+00 -5.3230097820108369e+01 -1.2851260105437724e+01 -6.7845118035066477e+01 0 0 0
2702 109 4 0.0000000000000000e+00 -5.8820035254986863e+01 -5.1021122580486464e+00 -6.6099667029724756e+01 0 0 0
2704 109 4 0.0000000000000000e+00 -4.3389197576760061e+01 -1.5104319924704010e+01 -6.6452016245824055e+01 0 0 0
2157 87 1 0.0000000000000000e+00 -2.3528583218883021e+01 -1.3790062368598283e+01 -6.2082278621689859e+01 0 0 0
2158 87 2 0.0000000000000000e+00 -2.0876327570230757e+01 -4.3520687914110443e+00 -6.4786925797747656e+01 0 0 0
2796 112 4 0.0000000000000000e+00 2.1538200370574221e+00 -4.7603675601986337e+00 -6.0394357430075750e+01 0 0 0
2795 112 4 0.0000000000000000e+00 1.6248235527316646e+00 -1.3896056977461271e+01 -6.5168642345904900e+01 0 0 0
4156 167 4 0.0000000000000000e+00 -6.2606411420937469e+01 -1.2197030095959117e+02 -5.2278150279154396e+01 0 0 0