LAMMPS data file via write_data, version 5 Jun 2019, timestep = 350000000

5000 atoms
4 atom types
5293 bonds
3 bond types
4600 angles
2 angle types

-2.5000000000000000e+02 2.5000000000000000e+02 xlo xhi
-2.5000000000000000e+02 2.5000000000000000e+02 ylo yhi
-2.5000000000000000e+02 2.5000000000000000e+02 zlo zhi

Masses

1 1000
2 1000
3 1000
4 1000

Pair Coeffs # lj/cut

1 0.18 10
2 0.18 10
3 0.18 10
4 0.18 10

Bond Coeffs # harmonic

1 3 10
2 3 10
3 3 11.22

Angle Coeffs # cosine

1 2
2 2

Atoms # full

269 11 1 0.0000000000000000e+00 -6.0412588289967125e+01 -3.9617358847325463e+01 -1.7748828259072167e+02 0 0 0
268 11 2 0.0000000000000000e+00 -5.6136636746951915e+01 -4.6449363241584471e+01 -1.7112608685968598e+02 0 0 0
273 11 2 0.0000000000000000e+00 -9.3280750031674287e+01 -2.7769480684518911e+01 -1.7728446700073076e+02 0 0 0
272 11 2 0.0000000000000000e+00 -8.3436801281701321e+01 -2.6462977409951026e+01 -1.7767975603060748e+02 0 0 0
270 11 2 0.0000000000000000e+00 -6.5556711494866789e+01 -3.1189323517236843e+01 -1.7866084138300232e+02 0 0 0
271 11 2 0.0000000000000000e+00 -7.4470622605692810e+01 -2.7049499967175343e+01 -1.8155462882172804e+02 0 0 0
4776 192 3 0.0000000000000000e+00 -5.7798639250871112e+01 -6.8394740922362743e+01 -1.5719445291670448e+02 0 0 0
4777 192 4 0.0000000000000000e+00 -5.0248815006080605e+01 -6.1709517358723481e+01 -1.5886295443428943e+02 0 0 0
3066 123 4 0.0000000000000000e+00 -9.1542329722575374e+01 -4.5288742911048161e+01 -1.5607769418456223e+02 0 0 0
267 11 2 0.0000000000000000e+00 -5.8040141778427348e+01 -5.1223297788424688e+01 -1.6209987431911205e+02 0 0 0
274 11 2 0.0000000000000000e+00 -9.6688047420362537e+01 -2.6595515824522835e+01 -1.6785434902225816e+02 0 0 0
3065 123 4 0.0000000000000000e+00 -8.8325870254370571e+01 -3.6264869364311501e+01 -1.5999966818948272e+02 0 0 0
3064 123 4 0.0000000000000000e+00 -8.4136697918843254e+01 -2.8421147101737340e+01 -1.6623085275083869e+02 0 0 0
275 11 1 0.0000000000000000e+00 -9.3105577992904145e+01 -2.3435134473310349e+01 -1.5847783143291511e+02 0 0 0
3063 123 3 0.0000000000000000e+00 -8.3240910721678389e+01 -1.9113650804046522e+01 -1.6192327781345591e+02 0 0 0
3062 123 4 0.0000000000000000e+00 -7.6601681631938604e+01 -1.2602722228762696e+01 -1.5902613417831927e+02 0 0 0
3061 123 4 0.0000000000000000e+00 -7.1230526160507239e+01 -4.2965044799914320e+00 -1.5915671459180354e+02 0 0 0
3060 123 4 0.0000000000000000e+00 -6.3684040596927716e+01 2.3325183431469245e+00 -1.5889120973566230e+02 0 0 0
3059 123 4 0.0000000000000000e+00 -5.6597228861561106e+01 8.6604540625499968e+00 -1.6049357729905188e+02 0 0 0
3058 123 4 0.0000000000000000e+00 -5.0061680013546805e+01 1.6829964886819948e+01 -1.6194648821164296e+02 0 0 0
1848 74 2 0.0000000000000000e+00 -7.1312375255361573e+01 -6.9547598538706765e+01 -1.5454441457726588e+02 0 0 0
1849 74 2 0.0000000000000000e+00 -6.3942396999512781e+01 -7.6035423438181851e+01 -1.5266864194667897e+02 0 0 0
1847 74 2 0.0000000000000000e+00 -6.6636568191320890e+01 -6.9144977883108851e+01 -1.4549868779604168e+02 0 0 0
1850 74 1 0.0000000000000000e+00 -5.3749168098990815e+01 -7.8020243417220669e+01 -1.5240563212228585e+02 0 0 0
265 11 2 0.0000000000000000e+00 -5.3123770442796086e+01 -6.1436053808165788e+01 -1.4472837935780160e+02 0 0 0
266 11 2 0.0000000000000000e+00 -5.5150990255912895e+01 -5.5678759243085821e+01 -1.5282027929536650e+02 0 0 0
3067 123 4 0.0000000000000000e+00 -8.7258922834036341e+01 -4.7017475390810766e+01 -1.4739242589031099e+02 0 0 0
2171 87 2 0.0000000000000000e+00 -8.7703615727249243e+01 -9.3439193595808963e+00 -1.4561506540657794e+02 0 0 0
2173 87 2 0.0000000000000000e+00 -9.2509198852484090e+01 3.7871228108932691e+00 -1.4523621124808449e+02 0 0 0
2172 87 2 0.0000000000000000e+00 -8.3680612435339427e+01 2.8210427783679370e-01 -1.4767188210209483e+02 0 0 0
3411 137 4 0.0000000000000000e+00 -6.4840916673497631e+01 1.6998351087369379e+01 -1.4716098679217845e+02 0 0 0
3410 137 4 0.0000000000000000e+00 -5.4690357493183129e+01 1.7623907321546753e+01 -1.4594086580029804e+02 0 0 0
3070 123 4 0.0000000000000000e+00 -8.1237964573729982e+01 -6.5985702868535952e+01 -1.3241162322852244e+02 0 0 0
264 11 2 0.0000000000000000e+00 -5.3961620057056436e+01 -6.8753998686260914e+01 -1.3753561775362382e+02 0 0 0
263 11 1 0.0000000000000000e+00 -5.0614807701415359e+01 -7.6625158376076641e+01 -1.3125828436942282e+02 0 0 0
3069 123 3 0.0000000000000000e+00 -7.8618140143245739e+01 -5.6501792304649456e+01 -1.3466501368300817e+02 0 0 0
1846 74 2 0.0000000000000000e+00 -7.0398882665301244e+01 -6.4307956156969510e+01 -1.3776291025189772e+02 0 0 0
1845 74 2 0.0000000000000000e+00 -6.9490848159293691e+01 -5.9008963769005270e+01 -1.2963299770233692e+02 0 0 0
3275 131 3 0.0000000000000000e+00 -4.9936911994339837e+01 -5.6468144547858991e+01 -1.3114990937346491e+02 0 0 0
582 24 1 0.0000000000000000e+00 -8.0542369387218272e+01 -4.5664343516792080e+01 -1.3122516113122219e+02 0 0 0
3068 123 4 0.0000000000000000e+00 -7.9343178207912445e+01 -5.0396118603680698e+01 -1.4157495223521005e+02 0 0 0
581 24 2 0.0000000000000000e+00 -7.2183541787180346e+01 -4.0001667908399817e+01 -1.2904727106482426e+02 0 0 0
3154 127 4 0.0000000000000000e+00 -1.1025179886430901e+02 -3.0996309015640250e+01 -1.3428139337366773e+02 0 0 0
3153 127 4 0.0000000000000000e+00 -1.1879807098086326e+02 -2.4935735865667070e+01 -1.3381695799046483e+02 0 0 0
3155 127 4 0.0000000000000000e+00 -1.0247833348934171e+02 -2.5302203196191883e+01 -1.3324344551505996e+02 0 0 0
580 24 2 0.0000000000000000e+00 -6.5033785083382270e+01 -3.2927178293918793e+01 -1.3014715641935274e+02 0 0 0
4457 179 3 0.0000000000000000e+00 -5.3751757798602341e+01 -3.2401060426835855e+01 -1.4001861898671481e+02 0 0 0
4456 179 4 0.0000000000000000e+00 -6.0220813401307943e+01 -2.5549017329486865e+01 -1.3747030857018507e+02 0 0 0
3152 127 4 0.0000000000000000e+00 -1.2382893925660345e+02 -1.7134571297528488e+01 -1.2890558985405636e+02 0 0 0
3156 127 4 0.0000000000000000e+00 -9.7935406640858361e+01 -1.6792381718043195e+01 -1.3074901034516799e+02 0 0 0
2170 87 2 0.0000000000000000e+00 -8.9044951930868450e+01 -1.4184110037467159e+01 -1.3672064680205091e+02 0 0 0
4455 179 4 0.0000000000000000e+00 -6.6875328660349410e+01 -2.0934690268369486e+01 -1.3154158798950155e+02 0 0 0
4000 160 3 0.0000000000000000e+00 -9.8842722753204811e+01 5.1168331644299681e-01 -1.3182823937518995e+02 0 0 0
2174 87 2 0.0000000000000000e+00 -8.9301130853679979e+01 9.3401495793583802e+00 -1.3732159927035647e+02 0 0 0
2020 81 2 0.0000000000000000e+00 -7.7109949464780954e+01 1.7505526915072629e+01 -1.3425340143958704e+02 0 0 0
2248 90 2 0.0000000000000000e+00 -5.3415022796083782e+01 1.0170012588692710e+01 -1.3199691826442771e+02 0 0 0
2392 96 2 0.0000000000000000e+00 -1.0014021860523953e+02 -1.0913499647659880e+02 -1.1553063822203779e+02 0 0 0
2391 96 2 0.0000000000000000e+00 -9.7857370611779629e+01 -9.9327321849392220e+01 -1.1661338139534013e+02 0 0 0
2390 96 2 0.0000000000000000e+00 -9.9134048148479224e+01 -8.9189352855484969e+01 -1.1614099221795249e+02 0 0 0
262 11 2 0.0000000000000000e+00 -5.1950797910531243e+01 -8.1298296453570714e+01 -1.2211979916115661e+02 0 0 0
3071 123 4 0.0000000000000000e+00 -7.5895328541328240e+01 -7.2239943450502494e+01 -1.2658819423307153e+02 0 0 0
3173 127 4 0.0000000000000000e+00 -1.0435461452342122e+02 -6.1049278676596977e+01 -1.1540556697838133e+02 0 0 0
3072 123 4 0.0000000000000000e+00 -7.1700792524990234e+01 -6.5668522846863539e+01 -1.2023345272804536e+02 0 0 0
1844 74 1 0.0000000000000000e+00 -5.9956438217392680e+01 -5.7353514213954959e+01 -1.2650026123302067e+02 0 0 0
584 24 2 0.0000000000000000e+00 -9.8958951514953540e+01 -4.1199632818378063e+01 -1.2826175224872566e+02 0 0 0
586 24 2 0.0000000000000000e+00 -1.0262632658167989e+02 -4.2250552825461121e+01 -1.1736418617384433e+02 0 0 0
583 24 2 0.0000000000000000e+00 -9.0004291037132290e+01 -4.3090902523106891e+01 -1.2846828141935811e+02 0 0 0
3160 127 4 0.0000000000000000e+00 -7.5116684175682494e+01 -3.8334223601382668e+01 -1.1775792423832537e+02 0 0 0
1843 74 2 0.0000000000000000e+00 -5.3544397113413069e+01 -4.9902554662287784e+01 -1.2354277945634013e+02 0 0 0
2706 109 4 0.0000000000000000e+00 -1.5062441834768325e+02 -3.0339171558638913e+01 -1.1643835875301805e+02 0 0 0
2705 109 4 0.0000000000000000e+00 -1.4309379892978308e+02 -3.0787696517974563e+01 -1.2286828336479461e+02 0 0 0
585 24 2 0.0000000000000000e+00 -1.0607936473525120e+02 -3.5348504369630241e+01 -1.2416335124605335e+02 0 0 0
3159 127 4 0.0000000000000000e+00 -8.4087341159337527e+01 -3.3949557173825582e+01 -1.2037889583243182e+02 0 0 0
3158 127 4 0.0000000000000000e+00 -8.8368744864971617e+01 -2.5107776839126874e+01 -1.1806031073984111e+02 0 0 0
579 24 2 0.0000000000000000e+00 -5.9239060171761196e+01 -2.8164677148589057e+01 -1.2394068862817571e+02 0 0 0
578 24 2 0.0000000000000000e+00 -5.1637340956165119e+01 -2.7601314345047502e+01 -1.1799638202513022e+02 0 0 0
1833 74 2 0.0000000000000000e+00 -4.9500706031452225e+01 -2.5916785957141947e+01 -1.2727896134354646e+02 0 0 0
2703 109 4 0.0000000000000000e+00 -1.5340727918332260e+02 -1.6170409314580425e+01 -1.1682524756625725e+02 0 0 0
2704 109 4 0.0000000000000000e+00 -1.4635678160128703e+02 -2.1406063869201663e+01 -1.2098284110984723e+02 0 0 0
3157 127 3 0.0000000000000000e+00 -9.3752331218690443e+01 -1.7617308539017110e+01 -1.2118739740089858e+02 0 0 0
2169 87 1 0.0000000000000000e+00 -8.4510421417219376e+01 -1.7548617533141108e+01 -1.2815972813476606e+02 0 0 0
2168 87 2 0.0000000000000000e+00 -7.7203438283680470e+01 -1.9444291674121249e+01 -1.2071568295245891e+02 0 0 0
4454 179 4 0.0000000000000000e+00 -6.8523733055770109e+01 -1.2928195895069473e+01 -1.2581870687584222e+02 0 0 0
2167 87 2 0.0000000000000000e+00 -7.0654738035936106e+01 -1.3969994469846128e+01 -1.1585356174817122e+02 0 0 0
3151 127 3 0.0000000000000000e+00 -1.2245656331617435e+02 -8.9064079910395506e+00 -1.2362426354624733e+02 0 0 0
3999 160 4 0.0000000000000000e+00 -9.8582152080923834e+01 1.3084238662943530e+00 -1.2172933173952462e+02 0 0 0
4453 179 4 0.0000000000000000e+00 -7.4996342644096657e+01 -6.5463775034366041e+00 -1.2174851739545423e+02 0 0 0
2060 83 2 0.0000000000000000e+00 -1.5176291760229873e+02 1.3743941459925033e+01 -1.1558117335821075e+02 0 0 0
4483 180 4 0.0000000000000000e+00 -1.2158398272447089e+02 1.3171760775759429e+01 -1.1965848045760924e+02 0 0 0
4482 180 3 0.0000000000000000e+00 -1.3096981052955368e+02 1.6195837393634598e+01 -1.1838773070145662e+02 0 0 0
4484 180 4 0.0000000000000000e+00 -1.1195333086366533e+02 1.4113826883249676e+01 -1.2188806816881592e+02 0 0 0
4485 180 4 0.0000000000000000e+00 -1.0305497732008239e+02 1.5729465971720863e+01 -1.1754933176048553e+02 0 0 0
2175 87 1 0.0000000000000000e+00 -8.9618179920179770e+01 5.7469798132219312e+00 -1.2790610101522053e+02 0 0 0
2249 90 2 0.0000000000000000e+00 -5.8648269539020639e+01 1.5268333001637201e+01 -1.2450375390498593e+02 0 0 0
3177 128 4 0.0000000000000000e+00 -4.9420524547138925e+01 6.4879809123574033e+00 -1.2083748427998256e+02 0 0 0
253 11 2 0.0000000000000000e+00 -8.9926068434392675e+01 -1.3783992448019802e+02 -1.0613845631832096e+02 0 0 0
252 11 2 0.0000000000000000e+00 -8.0791030530035727e+01 -1.4133993447736785e+02 -1.0162245671953276e+02 0 0 0
254 11 2 0.0000000000000000e+00 -9.1601162587921507e+01 -1.2811343140003359e+02 -1.0411804338332566e+02 0 0 0
2393 96 2 0.0000000000000000e+00 -1.0209907702726878e+02 -1.1619666191560930e+02 -1.0902329519693875e+02 0 0 0
4950 198 3 0.0000000000000000e+00 -6.9786943614113028e+01 -1.1394433356336692e+02 -1.0321272728126880e+02 0 0 0
4949 198 4 0.0000000000000000e+00 -7.7740361811341501e+01 -1.0751184110227067e+02 -1.0262343303651267e+02 0 0 0
259 11 2 0.0000000000000000e+00 -6.0883311056228216e+01 -9.8535683109052172e+01 -1.0170151112735518e+02 0 0 0
2389 96 2 0.0000000000000000e+00 -9.0698125057102175e+01 -8.2935867982506579e+01 -1.1435351843951614e+02 0 0 0
261 11 2 0.0000000000000000e+00 -5.7853094620847152e+01 -8.4677267301214656e+01 -1.1431908451861977e+02 0 0 0
260 11 2 0.0000000000000000e+00 -6.2129496536089697e+01 -8.9901806999216021e+01 -1.0686063547321596e+02 0 0 0
3175 127 3 0.0000000000000000e+00 -8.5043260586728167e+01 -6.7744933062032487e+01 -1.1269944902243878e+02 0 0 0
2388 96 1 0.0000000000000000e+00 -8.5826141140057189e+01 -7.7520362372917603e+01 -1.0771886355399994e+02 0 0 0
2387 96 2 0.0000000000000000e+00 -9.1525060708756030e+01 -7.0395667929771150e+01 -1.0361629573727745e+02 0 0 0
3172 127 4 0.0000000000000000e+00 -1.1350537858234470e+02 -5.7070444538370324e+01 -1.1298374098950275e+02 0 0 0
3174 127 4 0.0000000000000000e+00 -9.5125632781406850e+01 -6.4657901645416729e+01 -1.1325417150800531e+02 0 0 0
588 24 1 0.0000000000000000e+00 -9.9971615992420737e+01 -5.8001612905202030e+01 -1.0505072586138282e+02 0 0 0
2386 96 2 0.0000000000000000e+00 -8.6426320385120647e+01 -6.1938652646497232e+01 -1.0423049490852586e+02 0 0 0
3073 123 4 0.0000000000000000e+00 -6.8296471454552545e+01 -6.5384315542694637e+01 -1.1099405654003186e+02 0 0 0
1167 47 2 0.0000000000000000e+00 -5.0537287653345231e+01 -5.7721329531578547e+01 -1.1098053151974865e+02 0 0 0
3171 127 4 0.0000000000000000e+00 -1.2071312981175632e+02 -5.1620622504717325e+01 -1.0861347531859995e+02 0 0 0
587 24 2 0.0000000000000000e+00 -1.0187646799602913e+02 -5.0811068798673666e+01 -1.1197068593110762e+02 0 0 0
3167 127 4 0.0000000000000000e+00 -9.2984791725982319e+01 -4.9163456440299541e+01 -1.0486757813356192e+02 0 0 0
3166 127 4 0.0000000000000000e+00 -8.7321531249109142e+01 -4.0601142259337315e+01 -1.0434413531518452e+02 0 0 0
1168 47 2 0.0000000000000000e+00 -5.3390874930651151e+01 -5.1547610152475556e+01 -1.0350573661509802e+02 0 0 0
1169 47 1 0.0000000000000000e+00 -5.0886305589108034e+01 -4.1880613966603093e+01 -1.0271754057040825e+02 0 0 0
2707 109 3 0.0000000000000000e+00 -1.5179288500334800e+02 -2.6568698703541301e+01 -1.0739668296044864e+02 0 0 0
3165 127 4 0.0000000000000000e+00 -8.2013964247003784e+01 -3.2151278812209362e+01 -1.0501808034868651e+02 0 0 0
3161 127 4 0.0000000000000000e+00 -7.3012891035231746e+01 -2.8698705234790129e+01 -1.1465312376631775e+02 0 0 0
1170 47 2 0.0000000000000000e+00 -5.4543129443908576e+01 -3.3050062821035034e+01 -1.0450023236358625e+02 0 0 0
2702 109 4 0.0000000000000000e+00 -1.5852318250116457e+02 -1.0396071801216028e+01 -1.1086402116569454e+02 0 0 0
2377 96 2 0.0000000000000000e+00 -1.2006095063382762e+02 -1.5353200664850998e+01 -1.0961853445825125e+02 0 0 0
2378 96 2 0.0000000000000000e+00 -1.1412803625658006e+02 -1.8323302031085259e+01 -1.0277742137499298e+02 0 0 0
3997 160 4 0.0000000000000000e+00 -9.9816030148085602e+01 -1.4169911765102684e+01 -1.0794764881879166e+02 0 0 0
3996 160 4 0.0000000000000000e+00 -9.3438974525888838e+01 -2.1080328982086325e+01 -1.1003176598829599e+02 0 0 0
3162 127 4 0.0000000000000000e+00 -7.3646760694187165e+01 -2.0529835747013816e+01 -1.0934215399184056e+02 0 0 0
2166 87 2 0.0000000000000000e+00 -6.1597382557480067e+01 -1.0049952963670240e+01 -1.1355279803891843e+02 0 0 0
577 24 2 0.0000000000000000e+00 -5.2563750915487269e+01 -1.8466788802536811e+01 -1.1425051079172196e+02 0 0 0
576 24 1 0.0000000000000000e+00 -5.0306980154175442e+01 -9.5486829130181512e+00 -1.1157692976210001e+02 0 0 0
2701 109 3 0.0000000000000000e+00 -1.5800935038481231e+02 -6.4667170540488010e+00 -1.0175014994754351e+02 0 0 0
2376 96 1 0.0000000000000000e+00 -1.1991622085387205e+02 -5.8560890063174122e+00 -1.1289116535072979e+02 0 0 0
3998 160 4 0.0000000000000000e+00 -9.8460758347130309e+01 -6.0619267494354174e+00 -1.1448334125719848e+02 0 0 0
4452 179 4 0.0000000000000000e+00 -8.0316780792479193e+01 -3.9698868683262862e+00 -1.1395625650223420e+02 0 0 0
4451 179 3 0.0000000000000000e+00 -8.9427048671327583e+01 -1.3710529948188812e+00 -1.0993279230082730e+02 0 0 0
2070 83 2 0.0000000000000000e+00 -8.3569643783336318e+01 2.3363549177201746e+00 -1.0246189578878895e+02 0 0 0
2072 83 2 0.0000000000000000e+00 -6.4304074436315418e+01 1.3710758380819992e+00 -1.0225603287724036e+02 0 0 0
2165 87 2 0.0000000000000000e+00 -5.9851580614955843e+01 -7.0680881499425335e-02 -1.1210538914220398e+02 0 0 0
2059 83 2 0.0000000000000000e+00 -1.5260288356112451e+02 7.5426739226853616e+00 -1.0845120435952273e+02 0 0 0
2063 83 1 0.0000000000000000e+00 -1.3554759474363490e+02 1.8109210541674805e+01 -1.0832183960331048e+02 0 0 0
2064 83 2 0.0000000000000000e+00 -1.3131809155753476e+02 1.0352748036753800e+01 -1.0243770217631088e+02 0 0 0
2164 87 2 0.0000000000000000e+00 -5.6110162723345667e+01 9.6804524578408646e+00 -1.1135668327676427e+02 0 0 0
4151 167 3 0.0000000000000000e+00 -8.1418146140747467e+01 -1.5005083941868702e+02 -9.3551329316330126e+01 0 0 0
251 11 1 0.0000000000000000e+00 -7.3839142860285961e+01 -1.4226711606306165e+02 -9.3854481053955709e+01 0 0 0
255 11 2 0.0000000000000000e+00 -8.5926268723054790e+01 -1.2362814105754498e+02 -9.7169171404463910e+01 0 0 0
4376 176 3 0.0000000000000000e+00 -1.0943732528492362e+02 -1.2198819422329819e+02 -9.8024272468587014e+01 0 0 0
4377 176 4 0.0000000000000000e+00 -1.0791077957135981e+02 -1.1464063070322160e+02 -9.0996815040126734e+01 0 0 0
2394 96 1 0.0000000000000000e+00 -9.8892560366865482e+01 -1.1928608342092859e+02 -1.0028825445582345e+02 0 0 0
2395 96 2 0.0000000000000000e+00 -9.3974042858851774e+01 -1.1798562089744779e+02 -9.1170796444638398e+01 0 0 0
256 11 2 0.0000000000000000e+00 -7.9138405159997063e+01 -1.1735493065559989e+02 -9.3850066382230594e+01 0 0 0
257 11 1 0.0000000000000000e+00 -6.9406616167898548e+01 -1.1398353501366896e+02 -9.2006069371355423e+01 0 0 0
4948 198 4 0.0000000000000000e+00 -8.0282859874777984e+01 -9.8462421895099084e+01 -9.9650206302520402e+01 0 0 0
258 11 2 0.0000000000000000e+00 -6.4521888279365967e+01 -1.0531402962594522e+02 -9.5533111167944185e+01 0 0 0
4947 198 4 0.0000000000000000e+00 -7.6196356030048037e+01 -9.0827685096508390e+01 -9.3409887520763533e+01 0 0 0
1981 80 2 0.0000000000000000e+00 -8.3620964046263481e+01 -6.8828714437007434e+01 -9.5290815534214389e+01 0 0 0
1980 80 2 0.0000000000000000e+00 -8.6291936807730053e+01 -7.5660911716326126e+01 -8.8895897398865046e+01 0 0 0
3075 123 3 0.0000000000000000e+00 -6.9917896004972278e+01 -6.8384537327707505e+01 -9.1576593101980563e+01 0 0 0
3169 127 3 0.0000000000000000e+00 -1.0793706708714109e+02 -5.3500165976291086e+01 -9.7493368227003288e+01 0 0 0
589 24 2 0.0000000000000000e+00 -9.8012868796549796e+01 -6.1986348466676432e+01 -9.6027573452491879e+01 0 0 0
2385 96 2 0.0000000000000000e+00 -8.4332951476269159e+01 -5.2191988980518786e+01 -1.0123098141426252e+02 0 0 0
1982 80 1 0.0000000000000000e+00 -7.7336246150868106e+01 -6.0897560391916301e+01 -9.4824038768561891e+01 0 0 0
3074 123 4 0.0000000000000000e+00 -6.8181262844735670e+01 -6.5288696590781854e+01 -1.0109803299986379e+02 0 0 0
1983 80 2 0.0000000000000000e+00 -7.0204694348214758e+01 -5.3932310935853920e+01 -9.4399010671326707e+01 0 0 0
1984 80 2 0.0000000000000000e+00 -6.0191988091838297e+01 -5.5422513217100999e+01 -9.5574960135016326e+01 0 0 0
1985 80 2 0.0000000000000000e+00 -5.9436348830298300e+01 -6.2762043678718520e+01 -8.8805548554777033e+01 0 0 0
3170 127 4 0.0000000000000000e+00 -1.1667204978489619e+02 -4.8006890972394338e+01 -1.0023029208490769e+02 0 0 0
3168 127 4 0.0000000000000000e+00 -9.8309919539736910e+01 -5.1016719101110979e+01 -9.7191131419171001e+01 0 0 0
2384 96 2 0.0000000000000000e+00 -8.6610847724235811e+01 -4.6417476401064050e+01 -9.3382972980229326e+01 0 0 0
2725 109 3 0.0000000000000000e+00 -5.7498730994121665e+01 -4.1906168947751013e+01 -9.3368164230576738e+01 0 0 0
2380 96 2 0.0000000000000000e+00 -1.0685438124468928e+02 -3.0452671514932860e+01 -9.0338310525759837e+01 0 0 0
2379 96 2 0.0000000000000000e+00 -1.0976621797585403e+02 -2.6431543849162082e+01 -9.8413822726373098e+01 0 0 0
3995 160 4 0.0000000000000000e+00 -9.1616894899795611e+01 -2.3714045948323783e+01 -1.0066582613270312e+02 0 0 0
3994 160 3 0.0000000000000000e+00 -9.3982752274601978e+01 -2.9407850590598578e+01 -9.2590509503373667e+01 0 0 0
2383 96 2 0.0000000000000000e+00 -8.6941725712624617e+01 -3.7113523773382575e+01 -8.9114070437880144e+01 0 0 0
3164 127 4 0.0000000000000000e+00 -7.7311607427428342e+01 -2.5417672705072427e+01 -9.9128352538243988e+01 0 0 0
2724 109 4 0.0000000000000000e+00 -6.4088994640261816e+01 -3.4396852503121231e+01 -9.1954330072542732e+01 0 0 0
2723 109 4 0.0000000000000000e+00 -7.1268400709223926e+01 -2.7599993094600862e+01 -9.1372807562688777e+01 0 0 0
2708 109 4 0.0000000000000000e+00 -1.5435758303050784e+02 -2.0707931908000155e+01 -9.9469077546701172e+01 0 0 0
2709 109 4 0.0000000000000000e+00 -1.4886462544098137e+02 -1.3247737209405146e+01 -9.5586028232258343e+01 0 0 0
2710 109 4 0.0000000000000000e+00 -1.3903999791441564e+02 -1.2319748601385657e+01 -9.3729204488369462e+01 0 0 0
2711 109 4 0.0000000000000000e+00 -1.3107604197669826e+02 -1.7604177998538507e+01 -9.0787617941590185e+01 0 0 0
2052 83 2 0.0000000000000000e+00 -1.1683354364593824e+02 -1.3577623510381471e+01 -9.1441173250301460e+01 0 0 0
3163 127 3 0.0000000000000000e+00 -7.1292041991294454e+01 -1.7438769760276585e+01 -9.9794314644025562e+01 0 0 0
2075 83 1 0.0000000000000000e+00 -6.4056258923698039e+01 -1.7798414266394765e+01 -9.1116062370324585e+01 0 0 0
2074 83 2 0.0000000000000000e+00 -5.7687790437668504e+01 -1.5885844779433256e+01 -9.8259977085861081e+01 0 0 0
1663 67 1 0.0000000000000000e+00 -5.8386558399636669e+01 -9.3888115613976257e+00 -8.8919230025623193e+01 0 0 0
2057 83 1 0.0000000000000000e+00 -1.5503630872900365e+02 -2.4886137592267485e+00 -9.1397376814951443e+01 0 0 0
2058 83 2 0.0000000000000000e+00 -1.5389257718572844e+02 3.9717571307289452e+00 -9.9321186717512418e+01 0 0 0
2066 83 2 0.0000000000000000e+00 -1.2144779656049350e+02 -6.8762215360272032e+00 -9.9238164076650691e+01 0 0 0
2053 83 2 0.0000000000000000e+00 -1.2289888715090220e+02 -7.1898751338912241e+00 -8.8395428081674126e+01 0 0 0
2065 83 2 0.0000000000000000e+00 -1.2698908971309362e+02 1.9299402314979188e+00 -1.0015409461170738e+02 0 0 0
2067 83 2 0.0000000000000000e+00 -1.1119466705353358e+02 -6.7268872046478050e+00 -9.9148356767002127e+01 0 0 0
2068 83 2 0.0000000000000000e+00 -1.0118724507029840e+02 -6.2002075290342020e+00 -9.7947479227582704e+01 0 0 0
2069 83 1 0.0000000000000000e+00 -9.1998516383513291e+01 -2.3168378234557512e+00 -9.9198989743324333e+01 0 0 0
2071 83 2 0.0000000000000000e+00 -7.3615794274609186e+01 2.4080577706998674e+00 -1.0111282136974157e+02 0 0 0
2073 83 2 0.0000000000000000e+00 -5.7473886095497278e+01 -5.3962539765020745e+00 -9.9637100353046193e+01 0 0 0
4880 196 4 0.0000000000000000e+00 -6.8551222884241554e+01 1.6207609651512332e+01 -9.2726390108152799e+01 0 0 0
4882 196 3 0.0000000000000000e+00 -5.0987493819966581e+01 8.1239537689558645e+00 -9.3430717049721991e+01 0 0 0
4881 196 4 0.0000000000000000e+00 -5.9284814323027000e+01 1.4103176360696983e+01 -9.0906589380193964e+01 0 0 0
4152 167 4 0.0000000000000000e+00 -8.0730721863910262e+01 -1.4389839695724109e+02 -8.4606141379078139e+01 0 0 0
4153 167 4 0.0000000000000000e+00 -7.8753940220134837e+01 -1.4106228970863654e+02 -7.5346132847221583e+01 0 0 0
2396 96 2 0.0000000000000000e+00 -8.6577007360044632e+01 -1.1829415097539062e+02 -8.4552521838516626e+01 0 0 0
2397 96 2 0.0000000000000000e+00 -8.4156713432748504e+01 -1.1479256634743511e+02 -7.5158318134707343e+01 0 0 0
4379 176 4 0.0000000000000000e+00 -1.0896443982947601e+02 -9.6550867885875206e+01 -8.5315796960741736e+01 0 0 0
4378 176 4 0.0000000000000000e+00 -1.0552562004128906e+02 -1.0616637974685032e+02 -8.5821299839043263e+01 0 0 0
4945 198 4 0.0000000000000000e+00 -7.1394665428101987e+01 -9.9987478038080098e+01 -7.6172503419785045e+01 0 0 0
4946 198 4 0.0000000000000000e+00 -7.3122370099130222e+01 -9.5237014140822666e+01 -8.4992747333089554e+01 0 0 0
3979 160 4 0.0000000000000000e+00 -6.1501711383785732e+01 -1.0550825106164194e+02 -7.5934708321953678e+01 0 0 0
3980 160 4 0.0000000000000000e+00 -6.2495625749067514e+01 -9.5614069376966640e+01 -7.7337307339554002e+01 0 0 0
4380 176 4 0.0000000000000000e+00 -1.1027442564088334e+02 -9.0248856794818352e+01 -7.7938789116814903e+01 0 0 0
1979 80 2 0.0000000000000000e+00 -8.8589355749739596e+01 -7.3820039120837123e+01 -7.9301617319671919e+01 0 0 0
1933 78 2 0.0000000000000000e+00 -7.2643851815140337e+01 -7.8615410020892014e+01 -7.6068772792716274e+01 0 0 0
591 24 2 0.0000000000000000e+00 -1.0406080419645970e+02 -6.1903157367993053e+01 -7.7638578676806972e+01 0 0 0
590 24 2 0.0000000000000000e+00 -1.0327466851794016e+02 -6.1922912999628842e+01 -8.7415451312075859e+01 0 0 0
1988 80 1 0.0000000000000000e+00 -8.2518786627961461e+01 -5.7020144516042961e+01 -8.0450282985472498e+01 0 0 0
1987 80 2 0.0000000000000000e+00 -7.6126024897070820e+01 -6.4447767060406321e+01 -7.7279891051287422e+01 0 0 0
1986 80 2 0.0000000000000000e+00 -6.7983460991278037e+01 -6.2837986929758607e+01 -8.2340103778475068e+01 0 0 0
3078 124 4 0.0000000000000000e+00 -5.2045594819838826e+01 -5.9815945937841612e+01 -7.8164272484276310e+01 0 0 0
3077 124 4 0.0000000000000000e+00 -5.6358682947343588e+01 -5.2753230766789393e+01 -8.3372436822974336e+01 0 0 0
3079 124 4 0.0000000000000000e+00 -4.8451935807889065e+01 -6.2211518891330705e+01 -8.6893787121618104e+01 0 0 0
4198 168 4 0.0000000000000000e+00 -1.0014898510111107e+02 -3.8629720715949027e+01 -7.7110243453826968e+01 0 0 0
4199 168 4 0.0000000000000000e+00 -9.5615278201598059e+01 -4.7089744804929737e+01 -7.5691518453888122e+01 0 0 0
1989 80 2 0.0000000000000000e+00 -8.7075431062764068e+01 -4.8588042244390870e+01 -8.3753518657713926e+01 0 0 0
1990 80 2 0.0000000000000000e+00 -8.2482251498373458e+01 -4.1455134759766764e+01 -7.8647482725335863e+01 0 0 0
3076 124 3 0.0000000000000000e+00 -6.4299189904898086e+01 -4.6995390711465681e+01 -8.4492825513772885e+01 0 0 0
1658 67 2 0.0000000000000000e+00 -5.6662290493753993e+01 -4.2140893965741782e+01 -7.8104412819901000e+01 0 0 0
2713 109 3 0.0000000000000000e+00 -1.1895780758021345e+02 -2.5766792499929650e+01 -7.7583886426289993e+01 0 0 0
2714 109 4 0.0000000000000000e+00 -1.0940932613386562e+02 -2.3563448291066102e+01 -7.6424295557115300e+01 0 0 0
2382 96 1 0.0000000000000000e+00 -9.2380825056233363e+01 -3.1568887795479831e+01 -8.1948347720609419e+01 0 0 0
2381 96 2 0.0000000000000000e+00 -1.0193098721519807e+02 -2.8111782346915962e+01 -8.1860028386124839e+01 0 0 0
3992 160 4 0.0000000000000000e+00 -7.9598094201637636e+01 -2.6742261092733681e+01 -8.5622616496764266e+01 0 0 0
3991 160 4 0.0000000000000000e+00 -7.1922142156706499e+01 -3.1245757671673971e+01 -8.0733252595315022e+01 0 0 0
1659 67 2 0.0000000000000000e+00 -5.6340300923221733e+01 -3.1911698237842344e+01 -7.9961721926481658e+01 0 0 0
2712 109 4 0.0000000000000000e+00 -1.2573580293208762e+02 -2.0424677168269504e+01 -8.3532221255199573e+01 0 0 0
2051 83 1 0.0000000000000000e+00 -1.1454826967642863e+02 -1.7030441171942940e+01 -8.2263988469249568e+01 0 0 0
2715 109 4 0.0000000000000000e+00 -1.0270546102737103e+02 -1.8446590874220810e+01 -8.1095315215654921e+01 0 0 0
2716 109 4 0.0000000000000000e+00 -9.6542705560698522e+01 -1.1653815256325091e+01 -8.4074279929814949e+01 0 0 0
3993 160 4 0.0000000000000000e+00 -8.8694570173545074e+01 -2.2794472955957275e+01 -8.7403230184355820e+01 0 0 0
2722 109 4 0.0000000000000000e+00 -7.4207194239163911e+01 -1.8688481631660739e+01 -8.7045662798044134e+01 0 0 0
2721 109 4 0.0000000000000000e+00 -7.0104221519279278e+01 -1.0513460396169718e+01 -8.2511129855534961e+01 0 0 0
1661 67 2 0.0000000000000000e+00 -5.2944747883450823e+01 -2.3380193586366865e+01 -7.9268717597012554e+01 0 0 0
1662 67 2 0.0000000000000000e+00 -5.2429755033410167e+01 -1.3468707229914850e+01 -8.2092192229951593e+01 0 0 0
2056 83 2 0.0000000000000000e+00 -1.4901944025860223e+02 -5.2746407289805530e-01 -8.3609614409491812e+01 0 0 0
2055 83 2 0.0000000000000000e+00 -1.3883900001900477e+02 -2.8340633673055360e-01 -8.2925079826478765e+01 0 0 0
2054 83 2 0.0000000000000000e+00 -1.2897506290189295e+02 -8.9886576079210445e-01 -8.3752273801224447e+01 0 0 0
2717 109 4 0.0000000000000000e+00 -9.1135542108425639e+01 -5.2368398938025482e+00 -7.9678173887394095e+01 0 0 0
2718 109 4 0.0000000000000000e+00 -8.3533973025299005e+01 3.4508537664977068e-01 -7.7584141145098229e+01 0 0 0
2720 109 4 0.0000000000000000e+00 -6.7800680757837313e+01 -3.2957716323869413e+00 -7.6003203055814026e+01 0 0 0
1664 67 2 0.0000000000000000e+00 -6.1203900786171815e+01 5.1109636146739656e-01 -8.7594907494737200e+01 0 0 0
1670 67 2 0.0000000000000000e+00 -1.1117035380479186e+02 9.2022079716928751e+00 -7.5995063162470970e+01 0 0 0
1668 67 2 0.0000000000000000e+00 -9.5062611418757982e+01 1.6394531776664767e+01 -7.9753134764234488e+01 0 0 0
1669 67 1 0.0000000000000000e+00 -1.0418983016317124e+02 1.7123865928605021e+01 -7.6475032739411034e+01 0 0 0
1667 67 2 0.0000000000000000e+00 -8.5099649797955877e+01 1.4821882009891398e+01 -8.0489604612256016e+01 0 0 0
1666 67 2 0.0000000000000000e+00 -7.7687560491775784e+01 8.1664552271380142e+00 -8.0816642608556734e+01 0 0 0
1665 67 2 0.0000000000000000e+00 -6.8800648440266912e+01 6.7661662627817885e+00 -8.4415118357769927e+01 0 0 0
4155 167 4 0.0000000000000000e+00 -7.8382949402716193e+01 -1.2454522935979523e+02 -6.7834925859642112e+01 0 0 0
4154 167 4 0.0000000000000000e+00 -7.3919468761605870e+01 -1.3362623923425792e+02 -6.9876343206762613e+01 0 0 0
4156 167 4 0.0000000000000000e+00 -8.5223793155345476e+01 -1.1884960354191863e+02 -6.3973139550761594e+01 0 0 0
3977 160 4 0.0000000000000000e+00 -6.3772934601107856e+01 -1.2093842671418822e+02 -6.6053586006761904e+01 0 0 0
2398 96 2 0.0000000000000000e+00 -7.6332561816051651e+01 -1.1252800772672856e+02 -6.8796543117695634e+01 0 0 0
3978 160 4 0.0000000000000000e+00 -6.3757179860862621e+01 -1.1498401020369067e+02 -7.4223070696909886e+01 0 0 0
1941 78 2 0.0000000000000000e+00 -5.2533870316269009e+01 -1.1024256937538934e+02 -6.6135163613973944e+01 0 0 0