LAMMPS data file via write_data, version 5 Jun 2019, timestep = 310000000

5000 atoms
4 atom types
5291 bonds
3 bond types
4600 angles
2 angle types

-2.5000000000000000e+02 2.5000000000000000e+02 xlo xhi
-2.5000000000000000e+02 2.5000000000000000e+02 ylo yhi
-2.5000000000000000e+02 2.5000000000000000e+02 zlo zhi

Masses

1 1000
2 1000
3 1000
4 1000

Pair Coeffs # lj/cut

1 0.18 10
2 0.18 10
3 0.18 10
4 0.18 10

Bond Coeffs # harmonic

1 3 10
2 3 10
3 3 11.22

Angle Coeffs # cosine

1 2
2 2

Atoms # full

3059 123 4 0.0000000000000000e+00 -5.5639716685198358e+01 9.7420771009344644e+00 -1.8344741251674640e+02 0 0 0
3058 123 4 0.0000000000000000e+00 -5.2461515657471537e+01 1.6394567649577560e+01 -1.9043286124968273e+02 0 0 0
3066 123 4 0.0000000000000000e+00 -6.6685985986264711e+01 -4.9840334877394262e+01 -1.7243370090490535e+02 0 0 0
3065 123 4 0.0000000000000000e+00 -6.2408962833306575e+01 -4.1037480073072736e+01 -1.7577676802899606e+02 0 0 0
3064 123 4 0.0000000000000000e+00 -5.9215579463962705e+01 -3.1470738143657993e+01 -1.7326846181210121e+02 0 0 0
3063 123 3 0.0000000000000000e+00 -5.7436589649566223e+01 -2.2140881455463791e+01 -1.6859657959565828e+02 0 0 0
3061 123 4 0.0000000000000000e+00 -6.3146767566155155e+01 -5.0130195024785928e+00 -1.7277148371453717e+02 0 0 0
3060 123 4 0.0000000000000000e+00 -5.8080900342435235e+01 7.7396185085385538e-01 -1.7945200292716135e+02 0 0 0
3410 137 4 0.0000000000000000e+00 -6.1173772744979068e+01 1.6081400681873799e+01 -1.7584424340692848e+02 0 0 0
3070 123 4 0.0000000000000000e+00 -5.1426546344228370e+01 -7.4969681818280549e+01 -1.5724275423600258e+02 0 0 0
3068 123 4 0.0000000000000000e+00 -5.5185766966133038e+01 -6.1430655957211094e+01 -1.6171037998640784e+02 0 0 0
583 24 2 0.0000000000000000e+00 -6.8674498845133428e+01 -5.7711060705432971e+01 -1.5498971317605242e+02 0 0 0
3067 123 4 0.0000000000000000e+00 -6.2614590831944760e+01 -5.5662655306357280e+01 -1.6537063760623360e+02 0 0 0
274 11 2 0.0000000000000000e+00 -4.5899145294115996e+01 -3.2451521001539234e+01 -1.5662772067751769e+02 0 0 0
275 11 1 0.0000000000000000e+00 -5.2338210758230474e+01 -3.1563081714771009e+01 -1.6499079734866595e+02 0 0 0
3062 123 4 0.0000000000000000e+00 -5.7548135028630981e+01 -1.1634106485442336e+01 -1.6786646332157744e+02 0 0 0
3409 137 4 0.0000000000000000e+00 -5.8014262323994600e+01 1.6086571362991442e+01 -1.6671658104275500e+02 0 0 0
3408 137 4 0.0000000000000000e+00 -4.8211052039739151e+01 1.6477750294293106e+01 -1.6367461150474981e+02 0 0 0
3407 137 3 0.0000000000000000e+00 -4.0172197769443599e+01 1.0685885798290434e+01 -1.6409580505026491e+02 0 0 0
3071 123 4 0.0000000000000000e+00 -4.4200575816952941e+01 -7.7983649579868214e+01 -1.5134497222944520e+02 0 0 0
3072 123 4 0.0000000000000000e+00 -4.3620271941048706e+01 -7.5356459766396441e+01 -1.4182009394621193e+02 0 0 0
582 24 1 0.0000000000000000e+00 -6.2531717659665574e+01 -6.0372466117391482e+01 -1.4748310265489775e+02 0 0 0
3069 123 3 0.0000000000000000e+00 -5.5059740660855560e+01 -6.6689530789799278e+01 -1.5315364870802821e+02 0 0 0
584 24 2 0.0000000000000000e+00 -7.6943948362754000e+01 -5.2472604208931621e+01 -1.5167920357507930e+02 0 0 0
585 24 2 0.0000000000000000e+00 -7.4021415179460305e+01 -4.9346390977669820e+01 -1.4288206085187252e+02 0 0 0
581 24 2 0.0000000000000000e+00 -5.4318161517871197e+01 -5.6071691629426077e+01 -1.4327901560293753e+02 0 0 0
2173 87 2 0.0000000000000000e+00 -6.8215212848531422e+01 -3.5402148749234982e+01 -1.4121436346586640e+02 0 0 0
2065 83 2 0.0000000000000000e+00 -9.0184541082609996e+01 1.2078158320054866e+00 -1.4614044106176630e+02 0 0 0
2066 83 2 0.0000000000000000e+00 -8.2178227356518533e+01 7.1488372290635809e+00 -1.4774364446275359e+02 0 0 0
2067 83 2 0.0000000000000000e+00 -7.3470360560295745e+01 4.5989443596265458e+00 -1.4446030369691732e+02 0 0 0
2247 90 2 0.0000000000000000e+00 -4.1633246116914755e+01 7.9086170430496248e+00 -1.5180122690560412e+02 0 0 0
4479 180 4 0.0000000000000000e+00 -1.1780674809013676e+02 1.8744559212832478e+01 -1.4612438043498813e+02 0 0 0
4480 180 4 0.0000000000000000e+00 -1.1427492804520212e+02 9.5667109054041539e+00 -1.4256775212716963e+02 0 0 0
2248 90 2 0.0000000000000000e+00 -4.6592146780469093e+01 1.2434375750352050e+01 -1.4379056049535475e+02 0 0 0
3073 123 4 0.0000000000000000e+00 -4.7576356862284172e+01 -7.0988444428245828e+01 -1.3451621435095458e+02 0 0 0
586 24 2 0.0000000000000000e+00 -7.6049447899745900e+01 -4.9748517008977515e+01 -1.3281016679574037e+02 0 0 0
580 24 2 0.0000000000000000e+00 -4.5943374446285233e+01 -5.1644139407252979e+01 -1.3876588999054135e+02 0 0 0
579 24 2 0.0000000000000000e+00 -4.2342049793490503e+01 -5.3656031636043245e+01 -1.3018846267093286e+02 0 0 0
2175 87 1 0.0000000000000000e+00 -8.6750320720957561e+01 -4.0971302641493530e+01 -1.3736870904026193e+02 0 0 0
4000 160 3 0.0000000000000000e+00 -9.5136393406237730e+01 -3.4301207832826329e+01 -1.3962646763489550e+02 0 0 0
2174 87 2 0.0000000000000000e+00 -7.8013613846329648e+01 -3.7650426100689614e+01 -1.4074844493121850e+02 0 0 0
3999 160 4 0.0000000000000000e+00 -9.5954438505235331e+01 -3.1342893604549229e+01 -1.3003612986152774e+02 0 0 0
2172 87 2 0.0000000000000000e+00 -6.6355850804208018e+01 -2.8628401493240542e+01 -1.3431712593295674e+02 0 0 0
4452 179 4 0.0000000000000000e+00 -4.2748875181351409e+01 -6.6030004639779900e+00 -1.3341053328862085e+02 0 0 0
2062 83 2 0.0000000000000000e+00 -1.1324447957278127e+02 6.8489836246304525e-01 -1.3261398952296790e+02 0 0 0
2063 83 1 0.0000000000000000e+00 -1.0306542079201139e+02 6.9934675376814426e-01 -1.3519597296840570e+02 0 0 0
4482 180 3 0.0000000000000000e+00 -9.5001449687606723e+01 7.9776478720874335e+00 -1.3757881120488878e+02 0 0 0
2064 83 2 0.0000000000000000e+00 -9.5581704013254580e+01 -4.0940844595121408e+00 -1.3922888617130025e+02 0 0 0
2068 83 2 0.0000000000000000e+00 -6.5942183150082812e+01 1.1156700228416716e+00 -1.3835617227611868e+02 0 0 0
2069 83 1 0.0000000000000000e+00 -6.0453118652922925e+01 5.1451619188868458e-01 -1.3007921470082783e+02 0 0 0
4451 179 3 0.0000000000000000e+00 -5.2406257222308000e+01 -5.2189065459489274e+00 -1.3468730092760057e+02 0 0 0
2060 83 2 0.0000000000000000e+00 -1.2221012413276202e+02 1.8900993416434101e+01 -1.2947113935646621e+02 0 0 0
2061 83 2 0.0000000000000000e+00 -1.1907428757070764e+02 9.1563949914425553e+00 -1.3132322436711956e+02 0 0 0
4481 180 4 0.0000000000000000e+00 -1.0496500992780722e+02 1.0396502256636701e+01 -1.3916660469467595e+02 0 0 0
4483 180 4 0.0000000000000000e+00 -8.5961519724890678e+01 9.6685850334832608e+00 -1.3268557100059260e+02 0 0 0
4484 180 4 0.0000000000000000e+00 -7.6450966070803275e+01 1.3531981704345782e+01 -1.3326880543942534e+02 0 0 0
2249 90 2 0.0000000000000000e+00 -5.0817441167978416e+01 2.0689706113647791e+01 -1.3963687533036938e+02 0 0 0
3173 127 4 0.0000000000000000e+00 -1.1179515272913424e+02 -6.1339650764525921e+01 -1.1530490393243944e+02 0 0 0
1983 80 2 0.0000000000000000e+00 -6.4623718464969102e+01 -6.3092012377176921e+01 -1.2210141892482652e+02 0 0 0
3074 123 4 0.0000000000000000e+00 -4.7857132744019175e+01 -6.6761402239354936e+01 -1.2471478602216349e+02 0 0 0
3172 127 4 0.0000000000000000e+00 -1.1149582361271682e+02 -5.1940908489309834e+01 -1.1864999915553246e+02 0 0 0
588 24 1 0.0000000000000000e+00 -9.1851394202878396e+01 -5.1397496464772480e+01 -1.2297266007227783e+02 0 0 0
587 24 2 0.0000000000000000e+00 -8.3495153278526331e+01 -4.6780650059670457e+01 -1.2664445991869373e+02 0 0 0
1984 80 2 0.0000000000000000e+00 -7.0175021215362946e+01 -5.4976684883647422e+01 -1.2061829424980840e+02 0 0 0
1982 80 1 0.0000000000000000e+00 -5.4780908688077488e+01 -5.9696727831304813e+01 -1.2406799463189752e+02 0 0 0
3075 123 3 0.0000000000000000e+00 -4.4273827101262782e+01 -5.8867177271368448e+01 -1.1930059949686655e+02 0 0 0
1981 80 2 0.0000000000000000e+00 -5.1675779014917246e+01 -4.9940401037788270e+01 -1.2700698317454945e+02 0 0 0
3171 127 4 0.0000000000000000e+00 -1.1082950101435836e+02 -4.2490084320413629e+01 -1.1505170420715213e+02 0 0 0
3170 127 4 0.0000000000000000e+00 -1.0115026587898652e+02 -4.2762968151559200e+01 -1.1474966268214284e+02 0 0 0
3169 127 3 0.0000000000000000e+00 -9.1093889770452435e+01 -4.2798496302321105e+01 -1.1534434306372412e+02 0 0 0
1985 80 2 0.0000000000000000e+00 -6.9472191291598278e+01 -4.5154191241735468e+01 -1.1830009484286745e+02 0 0 0
1980 80 2 0.0000000000000000e+00 -5.1293419775576702e+01 -4.3192346273420128e+01 -1.1932814339453547e+02 0 0 0
3998 160 4 0.0000000000000000e+00 -9.8698132035267079e+01 -3.0244643821920800e+01 -1.2098798306682578e+02 0 0 0
3153 127 4 0.0000000000000000e+00 -8.8083246462247430e+01 -3.0829276603103732e+01 -1.1911959746502333e+02 0 0 0
3154 127 4 0.0000000000000000e+00 -8.4992099058165721e+01 -2.1968044061403898e+01 -1.2163412889669752e+02 0 0 0
2171 87 2 0.0000000000000000e+00 -6.6484723537435158e+01 -2.8030638752607832e+01 -1.2461593644391938e+02 0 0 0
2170 87 2 0.0000000000000000e+00 -6.0656659552888776e+01 -2.3949218153742759e+01 -1.1806479730261292e+02 0 0 0
3155 127 4 0.0000000000000000e+00 -7.7814375343923075e+01 -1.6390849023866444e+01 -1.2498261099299646e+02 0 0 0
3156 127 4 0.0000000000000000e+00 -6.8871146135371689e+01 -1.4548869071989964e+01 -1.2077972123919557e+02 0 0 0
2169 87 1 0.0000000000000000e+00 -5.5537985331878254e+01 -1.5090012093612602e+01 -1.1811514772023203e+02 0 0 0
2168 87 2 0.0000000000000000e+00 -4.9453771313712565e+01 -6.8188649509135795e+00 -1.1807478386600080e+02 0 0 0
2070 83 2 0.0000000000000000e+00 -5.7811209299078236e+01 9.9750850613952377e-02 -1.1981032466193805e+02 0 0 0
2167 87 2 0.0000000000000000e+00 -4.4520744010426519e+01 1.3057470875906503e+00 -1.2195905519488282e+02 0 0 0
2055 83 2 0.0000000000000000e+00 -9.1921255998247247e+01 1.9113153463892605e+01 -1.2630179683691554e+02 0 0 0
2054 83 2 0.0000000000000000e+00 -8.3342247783121053e+01 1.9631079391640345e+01 -1.2136959541803631e+02 0 0 0
2053 83 2 0.0000000000000000e+00 -7.6527305714013096e+01 1.5629912155985419e+01 -1.1576878337058295e+02 0 0 0
2166 87 2 0.0000000000000000e+00 -4.2934049152876597e+01 1.1155385157204693e+01 -1.2101768067505262e+02 0 0 0
2394 96 1 0.0000000000000000e+00 -1.3298342308153005e+02 -1.0083699727416163e+02 -1.0103295726343815e+02 0 0 0
2393 96 2 0.0000000000000000e+00 -1.2492898137636112e+02 -9.5676012500757082e+01 -1.0403735986699724e+02 0 0 0
2392 96 2 0.0000000000000000e+00 -1.1666532464560564e+02 -9.2402349914499951e+01 -1.0858553471919322e+02 0 0 0
2391 96 2 0.0000000000000000e+00 -1.0766295919697455e+02 -8.9333995883718302e+01 -1.1327896226587485e+02 0 0 0
2390 96 2 0.0000000000000000e+00 -9.8992791440696735e+01 -8.5246265234908975e+01 -1.0996562774638021e+02 0 0 0
2389 96 2 0.0000000000000000e+00 -9.4667398208969942e+01 -7.6510784975490793e+01 -1.0667861957971880e+02 0 0 0
263 11 1 0.0000000000000000e+00 -4.0574827609168899e+01 -8.1772759285130107e+01 -1.0266891153448839e+02 0 0 0
3174 127 4 0.0000000000000000e+00 -1.0239517944842527e+02 -6.3595276284551474e+01 -1.1145172238008846e+02 0 0 0
591 24 2 0.0000000000000000e+00 -1.0852580258562735e+02 -5.9761247518878662e+01 -1.0382334930110396e+02 0 0 0
3175 127 3 0.0000000000000000e+00 -9.2256669581015345e+01 -6.2499134436887147e+01 -1.1036653781931538e+02 0 0 0
2388 96 1 0.0000000000000000e+00 -8.9594901045010545e+01 -6.9304253063586259e+01 -1.0131407981005086e+02 0 0 0
590 24 2 0.0000000000000000e+00 -1.0555001486452373e+02 -5.3141278629438787e+01 -1.1074838966022079e+02 0 0 0
589 24 2 0.0000000000000000e+00 -9.5581276507341670e+01 -5.1424548671937515e+01 -1.1374522772860144e+02 0 0 0
3997 160 4 0.0000000000000000e+00 -1.0485260983068571e+02 -3.4035291533066619e+01 -1.1346002866186058e+02 0 0 0
3168 127 4 0.0000000000000000e+00 -8.6240280565772224e+01 -4.2853293363054675e+01 -1.0650556075137564e+02 0 0 0
1986 80 2 0.0000000000000000e+00 -6.9107281924786662e+01 -4.0705414282463522e+01 -1.0932240529943228e+02 0 0 0
1978 80 2 0.0000000000000000e+00 -6.0778484815787124e+01 -3.5447456749335075e+01 -1.0495393604776552e+02 0 0 0
1979 80 2 0.0000000000000000e+00 -5.2715060588056076e+01 -3.8289947688432548e+01 -1.1063301686369668e+02 0 0 0
2725 109 3 0.0000000000000000e+00 -4.4015588930844316e+01 -3.3654713684446072e+01 -1.0120223826462889e+02 0 0 0
3996 160 4 0.0000000000000000e+00 -1.0091908621330251e+02 -3.0613948691431791e+01 -1.0510468639192612e+02 0 0 0
3152 127 4 0.0000000000000000e+00 -9.2641595916600608e+01 -3.0438395365145837e+01 -1.1041772984115022e+02 0 0 0
3151 127 3 0.0000000000000000e+00 -9.3260200652094596e+01 -2.5365966106135225e+01 -1.0121231778593237e+02 0 0 0
1977 80 2 0.0000000000000000e+00 -6.9496464835019367e+01 -3.2356301936705293e+01 -1.0201864358272796e+02 0 0 0
2376 96 1 0.0000000000000000e+00 -9.0503945609817080e+01 -1.6334474566010279e+01 -1.0708393634963335e+02 0 0 0
2377 96 2 0.0000000000000000e+00 -8.9663514094826027e+01 -5.6314166887812611e+00 -1.0650471730621487e+02 0 0 0
3158 127 4 0.0000000000000000e+00 -6.3985713511329891e+01 -1.8860628010389284e+01 -1.0343655977117402e+02 0 0 0
3157 127 3 0.0000000000000000e+00 -6.4575055396556394e+01 -1.3824316984043259e+01 -1.1216402689051868e+02 0 0 0
2378 96 2 0.0000000000000000e+00 -9.3383880744367062e+01 1.8786641972716194e+00 -1.0091907995065198e+02 0 0 0
2071 83 2 0.0000000000000000e+00 -6.2765885941740059e+01 -1.3584568968744763e+00 -1.1087412791115644e+02 0 0 0
2072 83 2 0.0000000000000000e+00 -6.5336054533133591e+01 -4.7387396502666652e+00 -1.0140765909618622e+02 0 0 0
4881 196 4 0.0000000000000000e+00 -4.3379054251809187e+01 7.0205293146560281e+00 -1.0117392551770324e+02 0 0 0
2052 83 2 0.0000000000000000e+00 -6.8761532617180720e+01 1.7921607481254103e+01 -1.0904875460830588e+02 0 0 0
4376 176 3 0.0000000000000000e+00 -1.3226340923558487e+02 -1.0397459390637272e+02 -9.0617702516050642e+01 0 0 0
260 11 2 0.0000000000000000e+00 -4.7009874367792307e+01 -1.0385494555648967e+02 -8.9800026319574897e+01 0 0 0
2395 96 2 0.0000000000000000e+00 -1.3940594192263282e+02 -9.6737873116927801e+01 -9.5148249612016997e+01 0 0 0
4377 176 4 0.0000000000000000e+00 -1.2889625701715025e+02 -9.5125151926246104e+01 -8.7733021867433465e+01 0 0 0
4378 176 4 0.0000000000000000e+00 -1.2350503843585656e+02 -8.7037986184126964e+01 -8.9261607371433712e+01 0 0 0
261 11 2 0.0000000000000000e+00 -4.7346959236319009e+01 -9.4925835273533082e+01 -9.3990316256932289e+01 0 0 0
4379 176 4 0.0000000000000000e+00 -1.1424594560850039e+02 -8.4854577992789487e+01 -9.2889664680740296e+01 0 0 0
4381 176 4 0.0000000000000000e+00 -9.8374000157121642e+01 -8.0337556084497081e+01 -9.3542959242918158e+01 0 0 0
4380 176 4 0.0000000000000000e+00 -1.0616906444683261e+02 -8.3215785251990567e+01 -9.8694361991544255e+01 0 0 0
4382 176 3 0.0000000000000000e+00 -9.0509015248056045e+01 -8.5621800870528233e+01 -9.0272280010450103e+01 0 0 0
594 24 1 0.0000000000000000e+00 -8.9331595055391915e+01 -7.5027909322335091e+01 -8.8779927975779884e+01 0 0 0
4383 176 4 0.0000000000000000e+00 -8.1146859371781289e+01 -8.3323773661089461e+01 -9.3810560764657239e+01 0 0 0
4384 176 4 0.0000000000000000e+00 -7.3892596754782687e+01 -7.6124184738616464e+01 -9.2401652437015358e+01 0 0 0
262 11 2 0.0000000000000000e+00 -4.3578408474769610e+01 -8.5705938034962301e+01 -9.3960416702150738e+01 0 0 0
592 24 2 0.0000000000000000e+00 -1.0156774937649914e+02 -6.0594889660671065e+01 -9.6425649383346737e+01 0 0 0
593 24 2 0.0000000000000000e+00 -9.5330219138907751e+01 -6.7868957772308121e+01 -9.2759597805638521e+01 0 0 0
3081 124 4 0.0000000000000000e+00 -4.5969645491212987e+01 -7.0798949178539104e+01 -9.7322411685325292e+01 0 0 0
3080 124 4 0.0000000000000000e+00 -4.8055378149562316e+01 -6.1952260879152433e+01 -9.3567026342221936e+01 0 0 0
2387 96 2 0.0000000000000000e+00 -9.1273901372237844e+01 -5.9335451229017167e+01 -9.9661231590167617e+01 0 0 0
2386 96 2 0.0000000000000000e+00 -9.4216338159436020e+01 -5.0332977558481382e+01 -9.7632813980183940e+01 0 0 0
4199 168 4 0.0000000000000000e+00 -8.9372721658261270e+01 -5.4157721028483031e+01 -8.9246611777110473e+01 0 0 0
4200 168 3 0.0000000000000000e+00 -8.3781711187191334e+01 -4.8770266265245354e+01 -9.5756626300858670e+01 0 0 0
2722 109 4 0.0000000000000000e+00 -5.7605929953930641e+01 -4.6560360819995168e+01 -9.2046170424484558e+01 0 0 0
3079 124 4 0.0000000000000000e+00 -4.6532895263861590e+01 -5.3093438821005911e+01 -8.9947510421743488e+01 0 0 0
1168 47 2 0.0000000000000000e+00 -4.2392768840589625e+01 -4.7599859414742902e+01 -9.7099599991434204e+01 0 0 0
2384 96 2 0.0000000000000000e+00 -1.0015039839047904e+02 -3.3734901157967748e+01 -9.2098623492781300e+01 0 0 0
2385 96 2 0.0000000000000000e+00 -9.9524856761136135e+01 -4.1386123941511258e+01 -9.9029139725797833e+01 0 0 0
3167 127 4 0.0000000000000000e+00 -8.8551662544160905e+01 -3.6739989486311060e+01 -9.9237762497144089e+01 0 0 0
1987 80 2 0.0000000000000000e+00 -7.2178263535314969e+01 -4.2405993180128107e+01 -9.9795287966297181e+01 0 0 0
1988 80 1 0.0000000000000000e+00 -7.5939009406552046e+01 -4.2811072901009915e+01 -9.0807746327764747e+01 0 0 0
1976 80 1 0.0000000000000000e+00 -7.9113747143910743e+01 -3.3040369969096076e+01 -9.8806510141703271e+01 0 0 0
2723 109 4 0.0000000000000000e+00 -6.1981884220528478e+01 -3.8410858604392487e+01 -9.6313278873715674e+01 0 0 0
2724 109 4 0.0000000000000000e+00 -5.2658879604075658e+01 -3.6012492574045098e+01 -9.7746551732225100e+01 0 0 0
3994 160 3 0.0000000000000000e+00 -1.1103303916886127e+02 -2.0046858102672118e+01 -9.1538049286193598e+01 0 0 0
3995 160 4 0.0000000000000000e+00 -1.0584534115657864e+02 -2.3379872333394044e+01 -9.9920913986126976e+01 0 0 0
2383 96 2 0.0000000000000000e+00 -1.0137872902692084e+02 -2.4080217341081823e+01 -9.1454063454405201e+01 0 0 0
3166 127 4 0.0000000000000000e+00 -8.7000167366826034e+01 -2.8218129775613612e+01 -9.3642291140509457e+01 0 0 0
3165 127 4 0.0000000000000000e+00 -9.0539135687715330e+01 -1.9153105480544102e+01 -9.1439555780589927e+01 0 0 0
3988 160 3 0.0000000000000000e+00 -7.3495957296115193e+01 -2.9998301130801529e+01 -8.9818397549289514e+01 0 0 0
3159 127 4 0.0000000000000000e+00 -6.5931419027028696e+01 -2.2350904993817743e+01 -9.4624028136558138e+01 0 0 0
2382 96 1 0.0000000000000000e+00 -1.0109302400029419e+02 -1.3922529047274120e+01 -8.9380386092401011e+01 0 0 0
2073 83 2 0.0000000000000000e+00 -6.7779498558877862e+01 -6.6208543757338392e+00 -9.1866324936552061e+01 0 0 0
2379 96 2 0.0000000000000000e+00 -1.0113141953625164e+02 6.1589814365651590e+00 -9.6922104663617176e+01 0 0 0
2380 96 2 0.0000000000000000e+00 -1.0425503554287975e+02 4.1472506229147426e+00 -8.7250925683797377e+01 0 0 0
2714 109 4 0.0000000000000000e+00 -6.4475175080924714e+01 5.7059088648961076e+00 -8.9698518213193623e+01 0 0 0
4880 196 4 0.0000000000000000e+00 -4.9338829603613625e+01 3.0647534009683617e+00 -9.4363445182525382e+01 0 0 0
2711 109 4 0.0000000000000000e+00 -9.1405407150399014e+01 1.2793187233909791e+01 -8.9449292052508952e+01 0 0 0
2712 109 4 0.0000000000000000e+00 -8.2583429982911539e+01 9.7781010192370275e+00 -9.2145274265749521e+01 0 0 0
2713 109 3 0.0000000000000000e+00 -7.2407129820019250e+01 9.9357622576594427e+00 -9.3578833843432733e+01 0 0 0
2051 83 1 0.0000000000000000e+00 -6.4496824960944139e+01 1.5318262985638951e+01 -1.0016832243312427e+02 0 0 0
4879 196 4 0.0000000000000000e+00 -5.3982392844015031e+01 1.0909055023518633e+01 -9.0185353144915140e+01 0 0 0
257 11 1 0.0000000000000000e+00 -4.7182456600438968e+01 -1.2050910322882108e+02 -7.3418974904669014e+01 0 0 0
2400 96 1 0.0000000000000000e+00 -1.2550517896922780e+02 -1.1211270438667636e+02 -7.4231777680393677e+01 0 0 0
4158 167 4 0.0000000000000000e+00 -1.1647038775498120e+02 -1.0144660182940638e+02 -7.7602731241019143e+01 0 0 0
259 11 2 0.0000000000000000e+00 -4.8233178235058475e+01 -1.0304216333758315e+02 -8.0151075095594592e+01 0 0 0
258 11 2 0.0000000000000000e+00 -4.6044579086569414e+01 -1.1239764530214329e+02 -7.9412247626334164e+01 0 0 0
2396 96 2 0.0000000000000000e+00 -1.4128244254680655e+02 -9.5480520034734880e+01 -8.5305850695206686e+01 0 0 0
2397 96 2 0.0000000000000000e+00 -1.4253266755001010e+02 -9.1886431873942556e+01 -7.6157321420911956e+01 0 0 0
4159 167 4 0.0000000000000000e+00 -1.0962184964782718e+02 -9.8695165194057751e+01 -8.4374687797807240e+01 0 0 0
4160 167 4 0.0000000000000000e+00 -9.9998745521591360e+01 -9.6009357310245377e+01 -8.5197703319687236e+01 0 0 0
4161 167 4 0.0000000000000000e+00 -9.2649625855696712e+01 -9.1483144131244018e+01 -7.9909293704627288e+01 0 0 0
595 24 2 0.0000000000000000e+00 -8.2902851849786273e+01 -8.0194072653319580e+01 -8.2821968699183415e+01 0 0 0
4385 176 4 0.0000000000000000e+00 -7.2380079076605327e+01 -7.0275793441434743e+01 -8.4052950351068048e+01 0 0 0
4386 176 4 0.0000000000000000e+00 -6.4055773730503873e+01 -7.3165179198205081e+01 -7.8945772734118108e+01 0 0 0
4198 168 4 0.0000000000000000e+00 -9.8638481605754180e+01 -5.6117590776137099e+01 -8.5514161081859868e+01 0 0 0
4197 168 4 0.0000000000000000e+00 -1.0473531830983107e+02 -4.9205451069822665e+01 -8.1067416316223685e+01 0 0 0
3985 160 4 0.0000000000000000e+00 -5.8710087611973066e+01 -4.8461625371692264e+01 -7.3869109835682082e+01 0 0 0
3078 124 4 0.0000000000000000e+00 -4.6073396125714481e+01 -5.3761800549251276e+01 -8.0069589000541299e+01 0 0 0
4196 168 4 0.0000000000000000e+00 -1.1071907700168562e+02 -4.1848372238834884e+01 -7.7399810266640685e+01 0 0 0
4195 168 4 0.0000000000000000e+00 -1.1791180189113823e+02 -3.4891892145012527e+01 -7.6013772071800474e+01 0 0 0
1990 80 2 0.0000000000000000e+00 -8.9342074241526248e+01 -3.7317241720055812e+01 -7.8622481853358067e+01 0 0 0
1989 80 2 0.0000000000000000e+00 -8.0988827533150825e+01 -3.8559223775559211e+01 -8.3873069227684894e+01 0 0 0
2721 109 4 0.0000000000000000e+00 -5.4508431388497804e+01 -4.4898475746003712e+01 -8.2095722865469568e+01 0 0 0
3987 160 4 0.0000000000000000e+00 -6.8014895527082132e+01 -3.5858588186898857e+01 -8.4530623558145635e+01 0 0 0
3986 160 4 0.0000000000000000e+00 -6.5150132343552286e+01 -4.4029124791068433e+01 -8.0224799916433966e+01 0 0 0
2720 109 4 0.0000000000000000e+00 -5.0037262110000455e+01 -4.0879595704995964e+01 -7.3727134868403155e+01 0 0 0
4574 183 4 0.0000000000000000e+00 -4.2892543729622240e+01 -3.3448097747393092e+01 -7.4572855238947213e+01 0 0 0
3993 160 4 0.0000000000000000e+00 -1.0979753703948799e+02 -1.9082153177337567e+01 -8.1429225319807401e+01 0 0 0
3991 160 4 0.0000000000000000e+00 -9.6091367620990198e+01 -2.0507273211328396e+01 -7.4590487301494548e+01 0 0 0
3990 160 4 0.0000000000000000e+00 -8.7364539808940762e+01 -2.2848905619019792e+01 -7.8899250467546537e+01 0 0 0
3989 160 4 0.0000000000000000e+00 -7.9554781736808280e+01 -2.7828370910832472e+01 -8.2269475981908542e+01 0 0 0
3161 127 4 0.0000000000000000e+00 -7.2880526155521480e+01 -2.0460553976886764e+01 -7.7669027553836301e+01 0 0 0
2717 109 4 0.0000000000000000e+00 -6.0139522934242827e+01 -1.8976232554283300e+01 -7.3481974554846829e+01 0 0 0
3164 127 4 0.0000000000000000e+00 -9.3831327794520774e+01 -1.3250562469685818e+01 -8.3813564685255102e+01 0 0 0
3163 127 3 0.0000000000000000e+00 -8.4857870607227781e+01 -1.1730800739792775e+01 -8.0163841776503673e+01 0 0 0
2075 83 1 0.0000000000000000e+00 -7.5753954891100889e+01 -7.9641142046997624e+00 -7.5024175825678867e+01 0 0 0
2074 83 2 0.0000000000000000e+00 -7.3518231623011047e+01 -1.0166076241550405e+01 -8.4262763480520590e+01 0 0 0
3160 127 4 0.0000000000000000e+00 -6.6210813383754953e+01 -1.8708301219901713e+01 -8.5091323602831110e+01 0 0 0
2716 109 4 0.0000000000000000e+00 -6.1446685280345619e+01 -9.3125275708097952e+00 -7.7026190338700147e+01 0 0 0
4188 168 3 0.0000000000000000e+00 -1.4525363029957234e+02 -3.0516728120764096e+00 -7.5850741619816347e+01 0 0 0
4187 168 4 0.0000000000000000e+00 -1.4412864484485198e+02 6.9472018603842924e+00 -7.4524354281516068e+01 0 0 0
479 20 2 0.0000000000000000e+00 -1.3505026502648229e+02 8.9989966655043652e-01 -7.6374099306950271e+01 0 0 0
2381 96 2 0.0000000000000000e+00 -9.9617187455341949e+01 -4.1771022349067479e+00 -8.6722538783092219e+01 0 0 0
2715 109 4 0.0000000000000000e+00 -6.1739999169546188e+01 -1.5425122710915424e+00 -8.2783749445017122e+01 0 0 0
480 20 2 0.0000000000000000e+00 -1.2890905083743320e+02 8.2661825024789284e+00 -7.3347824051529670e+01 0 0 0
481 20 2 0.0000000000000000e+00 -1.1963057151123174e+02 1.1166688434187188e+01 -7.5135682208031113e+01 0 0 0
2710 109 4 0.0000000000000000e+00 -1.0040447314278691e+02 1.5150379506938533e+01 -8.5862481328282499e+01 0 0 0
2709 109 4 0.0000000000000000e+00 -1.0675732900782377e+02 2.1006383030236471e+01 -8.1569050726620830e+01 0 0 0
4878 196 4 0.0000000000000000e+00 -6.1102535051104574e+01 1.5853743615142733e+01 -8.4251683453940501e+01 0 0 0
4877 196 4 0.0000000000000000e+00 -6.2968967587056376e+01 1.3976339965496537e+01 -7.4468456264121201e+01 0 0 0
255 11 2 0.0000000000000000e+00 -6.1587108461274696e+01 -1.2225753984062503e+02 -6.1569879850161762e+01 0 0 0
256 11 2 0.0000000000000000e+00 -5.2665698062812361e+01 -1.2464694020639978e+02 -6.5846918885092506e+01 0 0 0
2399 96 2 0.0000000000000000e+00 -1.3201209903444908e+02 -1.0492036105920545e+02 -6.9801817931893325e+01 0 0 0
4156 167 4 0.0000000000000000e+00 -1.2604460321892564e+02 -1.0923668743395702e+02 -6.2694337758385110e+01 0 0 0
4157 167 3 0.0000000000000000e+00 -1.2162110032807189e+02 -1.0284705779512309e+02 -6.8810180842977047e+01 0 0 0
4948 198 4 0.0000000000000000e+00 -4.4714806436076238e+01 -1.0732474184537023e+02 -6.4938496719958991e+01 0 0 0
4947 198 4 0.0000000000000000e+00 -5.1821042604515434e+01 -1.0203742727024449e+02 -6.9375024355866259e+01 0 0 0
2398 96 2 0.0000000000000000e+00 -1.4014021474400997e+02 -9.9589686213907413e+01 -7.0497611707795528e+01 0 0 0
4163 167 3 0.0000000000000000e+00 -8.4627408755890301e+01 -8.9234077221649372e+01 -6.5609744052038323e+01 0 0 0
4945 198 4 0.0000000000000000e+00 -6.7343253346212407e+01 -9.0286068654570030e+01 -6.3361250396423912e+01 0 0 0
4946 198 4 0.0000000000000000e+00 -5.9317089984713746e+01 -9.5681776337411677e+01 -6.5890682748892914e+01 0 0 0
3876 156 3 0.0000000000000000e+00 -5.1113481885925694e+01 -9.0082495326018631e+01 -6.0429680017932220e+01 0 0 0
596 24 2 0.0000000000000000e+00 -8.2929261300570445e+01 -8.0096721948771673e+01 -7.2705325289301868e+01 0 0 0
4162 167 4 0.0000000000000000e+00 -9.1986385201178820e+01 -8.5787490125412276e+01 -7.1724647080628131e+01 0 0 0
1651 67 1 0.0000000000000000e+00 -7.5729247514119606e+01 -8.2280070140876418e+01 -6.6709081214817900e+01 0 0 0
1652 67 2 0.0000000000000000e+00 -7.1749349642913856e+01 -7.3685477979414699e+01 -6.2762374195457582e+01 0 0 0
597 24 2 0.0000000000000000e+00 -8.7000239160801755e+01 -7.1284930231730797e+01 -6.9221839171280180e+01 0 0 0
598 24 2 0.0000000000000000e+00 -8.7653742833072897e+01 -6.3929927812662541e+01 -6.2028662376301583e+01 0 0 0
4387 176 4 0.0000000000000000e+00 -5.5990591141382538e+01 -7.2701047777046313e+01 -7.2649835069153468e+01 0 0 0
1653 67 2 0.0000000000000000e+00 -6.7513409421083622e+01 -6.4536681067814953e+01 -6.1861863280763458e+01 0 0 0
1654 67 2 0.0000000000000000e+00 -6.1515253346327263e+01 -6.2932700730193027e+01 -6.9340416950692443e+01 0 0 0
3878 156 4 0.0000000000000000e+00 -5.5109190192113211e+01 -7.0742914182024819e+01 -6.1572349088385444e+01 0 0 0
4388 176 3 0.0000000000000000e+00 -4.7733429314730614e+01 -7.2140130848366496e+01 -6.6447703421171809e+01 0 0 0
1156 47 2 0.0000000000000000e+00 -4.3304388924595131e+01 -6.2762399832541391e+01 -6.9958778026166769e+01 0 0 0
2293 92 2 0.0000000000000000e+00 -9.2632328222643594e+01 -5.1054539433827507e+01 -6.1772473506498351e+01 0 0 0
3984 160 4 0.0000000000000000e+00 -5.4827701720698109e+01 -4.8332279539422217e+01 -6.4327524517593716e+01 0 0 0
1928 78 2 0.0000000000000000e+00 -6.4327751106526208e+01 -5.0605448990931933e+01 -6.1247007265918072e+01 0 0 0
1655 67 2 0.0000000000000000e+00 -5.2735225936491844e+01 -5.7268105085436211e+01 -7.0726383580800359e+01 0 0 0
1656 67 2 0.0000000000000000e+00 -4.4293576294675802e+01 -5.2488971208573432e+01 -6.7530222881800853e+01 0 0 0
1155 47 2 0.0000000000000000e+00 -4.1531841786258134e+01 -5.9582156911355817e+01 -6.0812569944037449e+01 0 0 0
4194 168 3 0.0000000000000000e+00 -1.2412586147024641e+02 -3.3149648454365433e+01 -6.8484642305719660e+01 0 0 0
1991 80 2 0.0000000000000000e+00 -9.7308347926028873e+01 -3.6614704229727828e+01 -7.2641997569862980e+01 0 0 0
2292 92 2 0.0000000000000000e+00 -9.2014253006867534e+01 -4.1397203378215572e+01 -6.1254480329967251e+01 0 0 0
1927 78 2 0.0000000000000000e+00 -6.1651796834339216e+01 -4.1651701951371685e+01 -6.1714946785479853e+01 0 0 0
1926 78 1 0.0000000000000000e+00 -6.2649003206002149e+01 -3.5615159908209485e+01 -6.9892228110442758e+01 0 0 0
2719 109 3 0.0000000000000000e+00 -5.1502946385616198e+01 -3.3516121080585094e+01 -6.7303121422990074e+01 0 0 0
4192 168 4 0.0000000000000000e+00 -1.3897935305594407e+02 -2.9285227960866127e+01 -6.0013179236571034e+01 0 0 0
4190 168 4 0.0000000000000000e+00 -1.4199941138560916e+02 -2.0382420383734441e+01 -6.7106090166103868e+01 0 0 0
4193 168 4 0.0000000000000000e+00 -1.2932099463993001e+02 -2.7910663706133221e+01 -6.2161745565745406e+01 0 0 0
1993 80 2 0.0000000000000000e+00 -1.1294776370965177e+02 -2.4952040600025221e+01 -6.9586400114891646e+01 0 0 0
1994 80 1 0.0000000000000000e+00 -1.2126168295898381e+02 -2.3625403007472869e+01 -6.4296417813984036e+01 0 0 0
1992 80 2 0.0000000000000000e+00 -1.0618419509445813e+02 -3.1818997957148802e+01 -7.1570546506139777e+01 0 0 0
4575 183 3 0.0000000000000000e+00 -4.2830794209689920e+01 -2.6336847659837812e+01 -6.7930339654419441e+01 0 0 0
2718 109 4 0.0000000000000000e+00 -5.3264753576741100e+01 -2.3394485974180590e+01 -6.8156146834939477e+01 0 0 0
2000 80 1 0.0000000000000000e+00 -1.5285101790117750e+02 -7.4933347277403008e+00 -6.8442360073303092e+01 0 0 0
4189 168 4 0.0000000000000000e+00 -1.4108569441865140e+02 -1.1909571780427029e+01 -7.2630422713821886e+01 0 0 0