LAMMPS data file via write_data, version 5 Jun 2019, timestep = 340000000

5000 atoms
4 atom types
5291 bonds
3 bond types
4600 angles
2 angle types

-2.5000000000000000e+02 2.5000000000000000e+02 xlo xhi
-2.5000000000000000e+02 2.5000000000000000e+02 ylo yhi
-2.5000000000000000e+02 2.5000000000000000e+02 zlo zhi

Masses

1 1000
2 1000
3 1000
4 1000

Pair Coeffs # lj/cut

1 0.18 10
2 0.18 10
3 0.18 10
4 0.18 10

Bond Coeffs # harmonic

1 3 10
2 3 10
3 3 11.22

Angle Coeffs # cosine

1 2
2 2

Atoms # full

1452 59 2 0.0000000000000000e+00 -2.8183359157580011e+01 1.7755637816974573e+01 -1.8379495612203991e+02 0 0 0
3162 127 4 0.0000000000000000e+00 -8.3881599301132454e+01 -2.0416314693989534e+01 -1.7945247190600671e+02 0 0 0
3163 127 3 0.0000000000000000e+00 -8.5872376701218442e+01 -2.0604678582314161e+01 -1.6983351289442552e+02 0 0 0
3161 127 4 0.0000000000000000e+00 -7.7256474068018093e+01 -1.3667129361860260e+01 -1.7670531641946499e+02 0 0 0
3160 127 4 0.0000000000000000e+00 -7.0855803110115190e+01 -9.0121187758777648e+00 -1.7124481183997031e+02 0 0 0
3066 123 4 0.0000000000000000e+00 -4.8602948996884649e+01 5.7851080319961303e+00 -1.7115316175485765e+02 0 0 0
2243 90 2 0.0000000000000000e+00 -2.5947667100145509e+01 4.2852329858747824e+00 -1.7197751902566330e+02 0 0 0
3998 160 4 0.0000000000000000e+00 -1.0274122967050499e+02 1.5759238873078578e+01 -1.6820111576159408e+02 0 0 0
3065 123 4 0.0000000000000000e+00 -4.4529840931422783e+01 1.0510348080789075e+01 -1.7873498345299544e+02 0 0 0
1451 59 1 0.0000000000000000e+00 -2.9540399176268792e+01 1.7229187997861036e+01 -1.7403261803055710e+02 0 0 0
4376 176 3 0.0000000000000000e+00 -7.6858827464797201e+01 -8.3469949975122034e+01 -1.5617703563471602e+02 0 0 0
1993 80 2 0.0000000000000000e+00 -1.2378682106577260e+02 -6.3975930238435808e+01 -1.6027443060875595e+02 0 0 0
4193 168 4 0.0000000000000000e+00 -1.4882277031456437e+02 -5.2571245257854336e+01 -1.5881421244155712e+02 0 0 0
4194 168 3 0.0000000000000000e+00 -1.3896985550189331e+02 -5.3834117669033972e+01 -1.5581099428986329e+02 0 0 0
1994 80 1 0.0000000000000000e+00 -1.3152539837666626e+02 -5.8241638246372382e+01 -1.6346061031487093e+02 0 0 0
1995 80 2 0.0000000000000000e+00 -1.3108481366155368e+02 -4.7738359124437586e+01 -1.6283873208390790e+02 0 0 0
3169 127 3 0.0000000000000000e+00 -6.8002701832015163e+01 -5.4387390149474392e+01 -1.5482360685521186e+02 0 0 0
3168 127 4 0.0000000000000000e+00 -7.5905034405755046e+01 -4.8028865597919349e+01 -1.5529252589316346e+02 0 0 0
1849 74 2 0.0000000000000000e+00 -3.3707262344534342e+01 -4.7764203916968491e+01 -1.6610559183521167e+02 0 0 0
4192 168 4 0.0000000000000000e+00 -1.4633304950996242e+02 -4.3282508309633904e+01 -1.6121320897671268e+02 0 0 0
4191 168 4 0.0000000000000000e+00 -1.3811449091074689e+02 -3.8847515799342155e+01 -1.5824915033439387e+02 0 0 0
1996 80 2 0.0000000000000000e+00 -1.2299160256426340e+02 -4.3059319142205624e+01 -1.6632440061479363e+02 0 0 0
1997 80 2 0.0000000000000000e+00 -1.1406723039751482e+02 -4.1572824619779730e+01 -1.6220313724812578e+02 0 0 0
1998 80 2 0.0000000000000000e+00 -1.0718909374072626e+02 -4.4856897543747202e+01 -1.5608131830806593e+02 0 0 0
3166 127 4 0.0000000000000000e+00 -9.2839930161910971e+01 -3.8843767353791890e+01 -1.5706598748881456e+02 0 0 0
3167 127 4 0.0000000000000000e+00 -8.3877019253326381e+01 -4.2079715598914284e+01 -1.5674592972331121e+02 0 0 0
587 24 2 0.0000000000000000e+00 -6.5867339478993429e+01 -3.5081186278224820e+01 -1.5847329834623298e+02 0 0 0
1850 74 1 0.0000000000000000e+00 -3.5646985023811283e+01 -3.8286622385211054e+01 -1.6700149530979368e+02 0 0 0
1848 74 2 0.0000000000000000e+00 -2.9839733916942990e+01 -4.6318307785390040e+01 -1.5683115236363182e+02 0 0 0
3165 127 4 0.0000000000000000e+00 -9.7686779544963628e+01 -2.9981465412987511e+01 -1.5977049840902137e+02 0 0 0
3164 127 4 0.0000000000000000e+00 -9.3520149815967002e+01 -2.1177223119010254e+01 -1.6320458384756202e+02 0 0 0
586 24 2 0.0000000000000000e+00 -6.2648022917434865e+01 -2.5087007345634067e+01 -1.5819928192496462e+02 0 0 0
4776 192 3 0.0000000000000000e+00 -2.7447940560071007e+01 -3.3916314339387263e+01 -1.5950663874966398e+02 0 0 0
2075 83 1 0.0000000000000000e+00 -8.0487290222187525e+01 -1.7855851148391473e+01 -1.5989408303370837e+02 0 0 0
2074 83 2 0.0000000000000000e+00 -7.7077566788150563e+01 -9.4204034946011870e+00 -1.5462133465848174e+02 0 0 0
585 24 2 0.0000000000000000e+00 -6.3426608173597401e+01 -1.7434537536542756e+01 -1.6410150969537034e+02 0 0 0
584 24 2 0.0000000000000000e+00 -6.3851983138302693e+01 -1.2681023965294109e+01 -1.5524207401824691e+02 0 0 0
4461 179 4 0.0000000000000000e+00 -2.6285544247075791e+01 -1.6189026567017883e+01 -1.5580713008036977e+02 0 0 0
4462 179 4 0.0000000000000000e+00 -2.5376532313593025e+01 -1.2833651720313544e+01 -1.6487401530801628e+02 0 0 0
3158 127 4 0.0000000000000000e+00 -6.7866825084085093e+01 4.4539088469663088e+00 -1.5980813660627430e+02 0 0 0
3159 127 4 0.0000000000000000e+00 -6.5359880922731847e+01 -3.9324669115020803e+00 -1.6426476982620954e+02 0 0 0
3067 123 4 0.0000000000000000e+00 -5.4595084140434594e+01 2.1680924494515845e+00 -1.6442388947665435e+02 0 0 0
3068 123 4 0.0000000000000000e+00 -4.6913739468557964e+01 -2.3953327853863429e+00 -1.5995548164500568e+02 0 0 0
2244 90 1 0.0000000000000000e+00 -2.9249096500551975e+01 -2.2012521272852839e+00 -1.6597061288971230e+02 0 0 0
3997 160 4 0.0000000000000000e+00 -1.0688372850051236e+02 1.5449486705678384e+01 -1.5849267038087993e+02 0 0 0
2169 87 1 0.0000000000000000e+00 -5.7893095345057525e+01 1.4972883523771138e+01 -1.5815368869239936e+02 0 0 0
2168 87 2 0.0000000000000000e+00 -4.8383137278936246e+01 1.1715013926428094e+01 -1.6024761008627078e+02 0 0 0
4454 179 4 0.0000000000000000e+00 -3.6466357119959561e+01 1.5291702885872496e+01 -1.5670133171483042e+02 0 0 0
4455 179 4 0.0000000000000000e+00 -3.2563305785384834e+01 6.4974900450241275e+00 -1.5718433871032664e+02 0 0 0
2396 96 2 0.0000000000000000e+00 -8.1406718924438209e+01 -9.4772221911207353e+01 -1.4275073590154133e+02 0 0 0
2395 96 2 0.0000000000000000e+00 -7.4991729434629221e+01 -9.5445378763309137e+01 -1.5062185423250429e+02 0 0 0
2394 96 1 0.0000000000000000e+00 -6.8556991241230193e+01 -8.7696708186191032e+01 -1.5054241936330516e+02 0 0 0
4377 176 4 0.0000000000000000e+00 -8.0897807864027968e+01 -8.0613996739781385e+01 -1.4752010870511350e+02 0 0 0
2393 96 2 0.0000000000000000e+00 -7.0046994447267267e+01 -7.8356529639425602e+01 -1.4786384311249182e+02 0 0 0
1991 80 2 0.0000000000000000e+00 -1.0711857757947057e+02 -6.3138635728231392e+01 -1.5329504162752770e+02 0 0 0
2392 96 2 0.0000000000000000e+00 -6.4866543170083176e+01 -6.9496481918120494e+01 -1.4687810819342153e+02 0 0 0
4195 168 4 0.0000000000000000e+00 -1.3036131592288967e+02 -5.3199442027086398e+01 -1.5000358653192035e+02 0 0 0
1992 80 2 0.0000000000000000e+00 -1.1710614819556461e+02 -6.0593202723780735e+01 -1.5315823972278105e+02 0 0 0
4196 168 4 0.0000000000000000e+00 -1.2187669350253752e+02 -4.8926004690620239e+01 -1.4706766022363169e+02 0 0 0
1990 80 2 0.0000000000000000e+00 -9.8641920779342271e+01 -5.7618963396476097e+01 -1.5376737154293099e+02 0 0 0
1989 80 2 0.0000000000000000e+00 -9.3210615353571470e+01 -4.9219614740407295e+01 -1.5267305132582288e+02 0 0 0
590 24 2 0.0000000000000000e+00 -7.9609353776375812e+01 -5.0367679454017825e+01 -1.4439712774886689e+02 0 0 0
589 24 2 0.0000000000000000e+00 -6.9587404301687101e+01 -4.9953929732744527e+01 -1.4581018965487544e+02 0 0 0
2391 96 2 0.0000000000000000e+00 -6.1139987583296147e+01 -6.0704459269206808e+01 -1.4417363019122095e+02 0 0 0
3170 127 4 0.0000000000000000e+00 -5.8522841829378400e+01 -5.7172919680118198e+01 -1.5428726686659923e+02 0 0 0
3171 127 4 0.0000000000000000e+00 -4.8797527894179780e+01 -5.6724891448121184e+01 -1.5111638931327593e+02 0 0 0
3172 127 4 0.0000000000000000e+00 -4.2771047806113714e+01 -5.3819362833202185e+01 -1.4351720050327833e+02 0 0 0
4190 168 4 0.0000000000000000e+00 -1.2922272934731771e+02 -3.7751123383913686e+01 -1.5374014430925507e+02 0 0 0
4189 168 4 0.0000000000000000e+00 -1.2043599423859280e+02 -3.5011506778593962e+01 -1.5081357828460932e+02 0 0 0
4188 168 3 0.0000000000000000e+00 -1.1326420301988934e+02 -3.8687775006531517e+01 -1.4496049479558192e+02 0 0 0
1999 80 2 0.0000000000000000e+00 -1.0366481670115827e+02 -3.6109527748654905e+01 -1.5361644479580136e+02 0 0 0
4200 168 3 0.0000000000000000e+00 -9.8679681577944066e+01 -4.0281538933156355e+01 -1.4581945586370111e+02 0 0 0
1988 80 1 0.0000000000000000e+00 -8.7961217168475088e+01 -4.2813228119681554e+01 -1.4656917121052652e+02 0 0 0
1987 80 2 0.0000000000000000e+00 -8.2217219117282355e+01 -3.4380279235611653e+01 -1.4584588090082343e+02 0 0 0
588 24 1 0.0000000000000000e+00 -6.6623796408594728e+01 -4.3769229856282678e+01 -1.5380894137672823e+02 0 0 0
3173 127 4 0.0000000000000000e+00 -4.1871090423902793e+01 -4.3551428747906954e+01 -1.4207462817983446e+02 0 0 0
1847 74 2 0.0000000000000000e+00 -2.5462377758180963e+01 -3.9348897124637134e+01 -1.5018413897742298e+02 0 0 0
2000 80 1 0.0000000000000000e+00 -1.0679759822738073e+02 -2.9675921027030260e+01 -1.4616852349160737e+02 0 0 0
3070 123 4 0.0000000000000000e+00 -4.4719063095863611e+01 -1.1729035728320891e+01 -1.4466970115746147e+02 0 0 0
4460 179 4 0.0000000000000000e+00 -2.7336859875252536e+01 -1.8642175088584715e+01 -1.4635673803019478e+02 0 0 0
3995 160 4 0.0000000000000000e+00 -1.0086462372074975e+02 4.9655969784446983e+00 -1.4292834481164084e+02 0 0 0
2073 83 2 0.0000000000000000e+00 -7.1239093425715311e+01 -2.0384070330652171e+00 -1.5126426953604141e+02 0 0 0
583 24 2 0.0000000000000000e+00 -5.9236816296376851e+01 -7.1487286738705098e+00 -1.4831138703372989e+02 0 0 0
2072 83 2 0.0000000000000000e+00 -6.2902972584068856e+01 1.6653356949693670e+00 -1.5100002066674077e+02 0 0 0
3069 123 3 0.0000000000000000e+00 -4.3325233588709118e+01 -4.8126431466058008e+00 -1.5106841685611710e+02 0 0 0
582 24 1 0.0000000000000000e+00 -5.2274817209180362e+01 2.5067239406304692e-01 -1.4640559728588067e+02 0 0 0
581 24 2 0.0000000000000000e+00 -4.3559740904782664e+01 -9.9635036989650727e-01 -1.4086645618813270e+02 0 0 0
4456 179 4 0.0000000000000000e+00 -3.2925180852637531e+01 -1.5379973013213994e+00 -1.5151200235528887e+02 0 0 0
4457 179 3 0.0000000000000000e+00 -2.6240003663303376e+01 -4.3845564986666075e+00 -1.4455622668613205e+02 0 0 0
3996 160 4 0.0000000000000000e+00 -1.0250299071866149e+02 8.0250418561324750e+00 -1.5285359913641068e+02 0 0 0
3157 127 3 0.0000000000000000e+00 -6.7309803121710218e+01 1.1457941913478356e+01 -1.5272775758002859e+02 0 0 0
2071 83 2 0.0000000000000000e+00 -5.8470690786161747e+01 9.8529182739298733e+00 -1.4845473815660014e+02 0 0 0
2070 83 2 0.0000000000000000e+00 -6.0285910946260387e+01 1.9474907429628850e+01 -1.4753529884714001e+02 0 0 0
2167 87 2 0.0000000000000000e+00 -4.2427647109711401e+01 1.0272380982018515e+01 -1.5189008292939883e+02 0 0 0
2166 87 2 0.0000000000000000e+00 -4.1247828326475911e+01 9.2301444280311475e+00 -1.4206967605226069e+02 0 0 0
2397 96 2 0.0000000000000000e+00 -8.8196112845321323e+01 -8.9473495764232396e+01 -1.3779284639016689e+02 0 0 0
4156 167 4 0.0000000000000000e+00 -1.1905227833280217e+02 -7.6696835667489808e+01 -1.2909483862300903e+02 0 0 0
2398 96 2 0.0000000000000000e+00 -9.4481722434983240e+01 -8.2332201378753936e+01 -1.3479695364000213e+02 0 0 0
2399 96 2 0.0000000000000000e+00 -9.3843446315560229e+01 -7.4704703703885997e+01 -1.2804817691175870e+02 0 0 0
4378 176 4 0.0000000000000000e+00 -7.8174456332882798e+01 -7.5392836060031868e+01 -1.3913765220040528e+02 0 0 0
4155 167 4 0.0000000000000000e+00 -1.2546993166477455e+02 -7.1502918749121463e+01 -1.3444459858947485e+02 0 0 0
4154 167 4 0.0000000000000000e+00 -1.3211354804261109e+02 -6.4373796408113108e+01 -1.3261488715861265e+02 0 0 0
4379 176 4 0.0000000000000000e+00 -8.3488898203813505e+01 -6.8432919120530940e+01 -1.3402984333596356e+02 0 0 0
4153 167 4 0.0000000000000000e+00 -1.4000145173134632e+02 -5.7577704517239951e+01 -1.3252010494686601e+02 0 0 0
4152 167 4 0.0000000000000000e+00 -1.3095184596830319e+02 -5.4130921642578144e+01 -1.3088058226208014e+02 0 0 0
4151 167 3 0.0000000000000000e+00 -1.2177048272962837e+02 -5.2491596323106769e+01 -1.2707492331049012e+02 0 0 0
2390 96 2 0.0000000000000000e+00 -5.3896487982370033e+01 -5.7677100710344114e+01 -1.3738024193924818e+02 0 0 0
2389 96 2 0.0000000000000000e+00 -4.9058444753967585e+01 -4.9522247415597526e+01 -1.3262169462364778e+02 0 0 0
4197 168 4 0.0000000000000000e+00 -1.1712943385263729e+02 -4.7187457547788455e+01 -1.3869623839468713e+02 0 0 0
4187 168 4 0.0000000000000000e+00 -1.1160624337785227e+02 -3.5413732236857136e+01 -1.3558212199499886e+02 0 0 0
4198 168 4 0.0000000000000000e+00 -1.0829898510399155e+02 -4.6263471084167676e+01 -1.3319320413941762e+02 0 0 0
4199 168 4 0.0000000000000000e+00 -9.9544810483002280e+01 -4.6051712946464001e+01 -1.3797701443769068e+02 0 0 0
591 24 2 0.0000000000000000e+00 -8.2460975259336919e+01 -4.6657317234869964e+01 -1.3605937353222808e+02 0 0 0
592 24 2 0.0000000000000000e+00 -8.2786852119733027e+01 -3.8062382766337066e+01 -1.3136018665133926e+02 0 0 0
2388 96 1 0.0000000000000000e+00 -5.3656754813521928e+01 -4.1412765002153179e+01 -1.2939665625211779e+02 0 0 0
3174 127 4 0.0000000000000000e+00 -4.1787313347976472e+01 -3.9866413745680475e+01 -1.3245701538114383e+02 0 0 0
1985 80 2 0.0000000000000000e+00 -8.7374675414217236e+01 -2.4649748801982529e+01 -1.3005247578419957e+02 0 0 0
1986 80 2 0.0000000000000000e+00 -8.1944474893338636e+01 -2.9361157917956451e+01 -1.3691987755301008e+02 0 0 0
2386 96 2 0.0000000000000000e+00 -6.5060585282475202e+01 -2.7046420834821518e+01 -1.2989978994044711e+02 0 0 0
2387 96 2 0.0000000000000000e+00 -5.6161842709723111e+01 -3.1440032385258238e+01 -1.2900843568037894e+02 0 0 0
1834 74 2 0.0000000000000000e+00 -3.7131408568389297e+01 -2.0716982805026724e+01 -1.3117915690558860e+02 0 0 0
2384 96 2 0.0000000000000000e+00 -7.7812312458905680e+01 -1.1520716862804731e+01 -1.3304050802385845e+02 0 0 0
2385 96 2 0.0000000000000000e+00 -7.1750161171185141e+01 -1.9033816874383351e+01 -1.3050345882829595e+02 0 0 0
3072 123 4 0.0000000000000000e+00 -5.9689871681648938e+01 -1.1150977670486572e+01 -1.3195399026123928e+02 0 0 0
3071 123 4 0.0000000000000000e+00 -5.2446916430893218e+01 -8.9973466143445417e+00 -1.3832009587223300e+02 0 0 0
1833 74 2 0.0000000000000000e+00 -3.1750446916713464e+01 -1.4615948275791434e+01 -1.3695059608328688e+02 0 0 0
1832 74 1 0.0000000000000000e+00 -2.5495186016702878e+01 -7.6041068897723987e+00 -1.3376946501793250e+02 0 0 0
3994 160 3 0.0000000000000000e+00 -1.0307653271321234e+02 4.4126885454210782e+00 -1.3339802670132704e+02 0 0 0
2383 96 2 0.0000000000000000e+00 -8.5778464403531345e+01 -4.8532095759337368e+00 -1.3364756305265720e+02 0 0 0
2382 96 1 0.0000000000000000e+00 -9.1557625173975083e+01 3.0478304209490954e+00 -1.3214777258999632e+02 0 0 0
580 24 2 0.0000000000000000e+00 -3.4939059611957106e+01 2.8305278048276006e+00 -1.3699723616362431e+02 0 0 0
579 24 2 0.0000000000000000e+00 -3.5611512197177682e+01 -1.7448803280221179e+00 -1.2748780619139632e+02 0 0 0
2381 96 2 0.0000000000000000e+00 -9.5439486446701480e+01 1.1853158368362852e+01 -1.3352248602788814e+02 0 0 0
2061 83 2 0.0000000000000000e+00 -7.7070056639038711e+01 1.6621230606068512e+01 -1.2763437000360460e+02 0 0 0
2165 87 2 0.0000000000000000e+00 -3.4845004663824980e+01 1.5091166736358431e+01 -1.3639412483542790e+02 0 0 0
2164 87 2 0.0000000000000000e+00 -3.3369518261049365e+01 1.9736672725234513e+01 -1.2767679909434543e+02 0 0 0
2248 90 2 0.0000000000000000e+00 -2.4942063601067908e+01 1.2069310050177192e+01 -1.3917260933838338e+02 0 0 0
4157 167 3 0.0000000000000000e+00 -1.1366041408673073e+02 -7.6397120418994035e+01 -1.2035181063050888e+02 0 0 0
4158 167 4 0.0000000000000000e+00 -1.0656759673691791e+02 -7.8871728677057689e+01 -1.1359332004605943e+02 0 0 0
258 11 2 0.0000000000000000e+00 -7.8625752017814222e+01 -8.0829662029114843e+01 -1.1927810078945254e+02 0 0 0
259 11 2 0.0000000000000000e+00 -6.8665983566230366e+01 -7.9089897449301432e+01 -1.1993344397189747e+02 0 0 0
252 11 2 0.0000000000000000e+00 -1.2121848970954879e+02 -6.6196345873933240e+01 -1.1689646758421672e+02 0 0 0
2400 96 1 0.0000000000000000e+00 -1.0246373120323246e+02 -7.2157287861457405e+01 -1.2280647377208150e+02 0 0 0
4380 176 4 0.0000000000000000e+00 -8.4825702731982418e+01 -6.1966974584553931e+01 -1.2610662233086727e+02 0 0 0
260 11 2 0.0000000000000000e+00 -6.5343786949644681e+01 -7.0966666253974907e+01 -1.1486635159421033e+02 0 0 0
261 11 2 0.0000000000000000e+00 -5.7466174581594508e+01 -6.3989283255935909e+01 -1.1623088291886872e+02 0 0 0
262 11 2 0.0000000000000000e+00 -4.7975506795967810e+01 -6.2350378386687190e+01 -1.1450323117227991e+02 0 0 0
263 11 1 0.0000000000000000e+00 -3.8153438749568878e+01 -6.1225463186776217e+01 -1.1599165149531855e+02 0 0 0
251 11 1 0.0000000000000000e+00 -1.2091442789177891e+02 -5.5854910818736165e+01 -1.1611839558758527e+02 0 0 0
4381 176 4 0.0000000000000000e+00 -8.7142341956208114e+01 -5.4229262492631811e+01 -1.1998740114176121e+02 0 0 0
264 11 2 0.0000000000000000e+00 -2.9122948701790481e+01 -5.9406633452108331e+01 -1.1968318168123918e+02 0 0 0
4382 176 3 0.0000000000000000e+00 -8.3589186749166842e+01 -4.5715609348863261e+01 -1.1586703041328636e+02 0 0 0
594 24 1 0.0000000000000000e+00 -8.9999182308343691e+01 -3.6223908323537003e+01 -1.1693241866444409e+02 0 0 0
3175 127 3 0.0000000000000000e+00 -4.4958696673847655e+01 -3.6130400989192658e+01 -1.2420406714788604e+02 0 0 0
1167 47 2 0.0000000000000000e+00 -3.2031495945781330e+01 -4.4385567463972983e+01 -1.2626235299357496e+02 0 0 0
1168 47 2 0.0000000000000000e+00 -3.2900805644292852e+01 -4.1902327260940631e+01 -1.1672122435354946e+02 0 0 0
4186 168 4 0.0000000000000000e+00 -1.1394372126993362e+02 -3.2948044619646090e+01 -1.2648560387497457e+02 0 0 0
4185 168 4 0.0000000000000000e+00 -1.1377158599292440e+02 -2.5476854344782826e+01 -1.1952358554329304e+02 0 0 0
593 24 2 0.0000000000000000e+00 -8.3152528711497652e+01 -3.2949247623430018e+01 -1.2309354654989049e+02 0 0 0
1984 80 2 0.0000000000000000e+00 -8.1278508855501343e+01 -1.7774925232804225e+01 -1.2567800728160694e+02 0 0 0
1983 80 2 0.0000000000000000e+00 -8.1918563256351078e+01 -7.6822861738718364e+00 -1.2415988816265451e+02 0 0 0
3074 123 4 0.0000000000000000e+00 -7.2802941432186756e+01 -8.3857617439413268e+00 -1.1949999292231743e+02 0 0 0
3073 123 4 0.0000000000000000e+00 -6.3641568665429489e+01 -1.0968047459708817e+01 -1.2339328067967058e+02 0 0 0
1835 74 2 0.0000000000000000e+00 -3.6014236882267276e+01 -1.7082390534531594e+01 -1.2148514663570072e+02 0 0 0
3993 160 4 0.0000000000000000e+00 -1.0287539552590010e+02 -1.4499718717154425e-01 -1.2456999099609163e+02 0 0 0
3992 160 4 0.0000000000000000e+00 -1.0441746883480866e+02 -6.3504532101373776e+00 -1.1636910394208907e+02 0 0 0
1982 80 1 0.0000000000000000e+00 -7.7760877778089281e+01 9.0118559949984522e-02 -1.1870911833369246e+02 0 0 0
2059 83 2 0.0000000000000000e+00 -6.4471962031674835e+01 4.5918318613558258e+00 -1.2075383104303994e+02 0 0 0
578 24 2 0.0000000000000000e+00 -3.5228556112908315e+01 -2.8636904784557715e+00 -1.1759451996934519e+02 0 0 0
3178 128 4 0.0000000000000000e+00 -2.4837977815040066e+01 8.0560418959704594e-01 -1.1746879999384321e+02 0 0 0
2060 83 2 0.0000000000000000e+00 -6.8101074263166524e+01 1.2891724448065201e+01 -1.2435009885931545e+02 0 0 0
3179 128 4 0.0000000000000000e+00 -2.5532669732200354e+01 9.1595177798507983e+00 -1.2362667974534020e+02 0 0 0
4161 167 4 0.0000000000000000e+00 -9.6490256577503800e+01 -1.0102718348660383e+02 -1.0168093766522308e+02 0 0 0
4160 167 4 0.0000000000000000e+00 -9.4854158272854008e+01 -9.0786013400237820e+01 -1.0310846036421110e+02 0 0 0
4159 167 4 0.0000000000000000e+00 -1.0022785276278013e+02 -8.3571086906653704e+01 -1.0783922075338010e+02 0 0 0
4950 198 3 0.0000000000000000e+00 -8.5515633758082103e+01 -8.5694703916078893e+01 -1.0377031765740961e+02 0 0 0
257 11 1 0.0000000000000000e+00 -8.6666669306231810e+01 -7.9658529769740383e+01 -1.1302012942291448e+02 0 0 0
253 11 2 0.0000000000000000e+00 -1.1480002605430380e+02 -7.0684664177578000e+01 -1.1109192826709518e+02 0 0 0
254 11 2 0.0000000000000000e+00 -1.1139618409592205e+02 -6.8276020619353346e+01 -1.0215220912187411e+02 0 0 0
255 11 2 0.0000000000000000e+00 -1.0227310446592885e+02 -6.9174651978412328e+01 -1.0547282030486727e+02 0 0 0
256 11 2 0.0000000000000000e+00 -9.4580199643993410e+01 -7.4437819707990869e+01 -1.0937244296274000e+02 0 0 0
4385 176 4 0.0000000000000000e+00 -6.7364318159792631e+01 -4.9765358185370722e+01 -1.0065439377876419e+02 0 0 0
3081 124 4 0.0000000000000000e+00 -4.5045067488550870e+01 -4.9914825646695888e+01 -1.0674709939773423e+02 0 0 0
3082 124 3 0.0000000000000000e+00 -3.6060739416698297e+01 -5.0731966554633814e+01 -1.1233134566016119e+02 0 0 0
596 24 2 0.0000000000000000e+00 -9.7190745452490049e+01 -3.6046135105369729e+01 -1.0422334099921052e+02 0 0 0
4383 176 4 0.0000000000000000e+00 -7.9736689193025484e+01 -3.8830300248283052e+01 -1.1009891939135102e+02 0 0 0
4384 176 4 0.0000000000000000e+00 -7.2836015723580275e+01 -4.1105483857253297e+01 -1.0334157456764696e+02 0 0 0
3080 124 4 0.0000000000000000e+00 -5.3766110785406745e+01 -4.4781021703613526e+01 -1.0763827017245990e+02 0 0 0
3079 124 4 0.0000000000000000e+00 -5.9438738781232693e+01 -3.8492483809817486e+01 -1.0239072285097514e+02 0 0 0
2725 109 3 0.0000000000000000e+00 -3.6772550512297784e+01 -3.4767125484786511e+01 -1.0136504752533089e+02 0 0 0
3083 124 4 0.0000000000000000e+00 -3.0106573672352908e+01 -4.4374187558600141e+01 -1.0691634187983202e+02 0 0 0
595 24 2 0.0000000000000000e+00 -9.7990158466698489e+01 -3.2576464688642865e+01 -1.1314155988750390e+02 0 0 0
1170 47 2 0.0000000000000000e+00 -4.3624037374674252e+01 -2.8422250099312098e+01 -1.0738487580192026e+02 0 0 0
1169 47 1 0.0000000000000000e+00 -3.5775786153962947e+01 -3.3619942622812076e+01 -1.1211343373167415e+02 0 0 0
1837 74 2 0.0000000000000000e+00 -2.7263790725874095e+01 -2.4611213532067207e+01 -1.0629908530788779e+02 0 0 0
4184 168 4 0.0000000000000000e+00 -1.1307982628437082e+02 -1.9428483244656231e+01 -1.1165627687595315e+02 0 0 0
4183 168 4 0.0000000000000000e+00 -1.1810865499341907e+02 -1.5241300374344563e+01 -1.0428955516511077e+02 0 0 0
3991 160 4 0.0000000000000000e+00 -1.0579263135206649e+02 -1.0401638938603819e+01 -1.0660529046297994e+02 0 0 0
1171 47 2 0.0000000000000000e+00 -4.5126714297755086e+01 -1.9720550686883652e+01 -1.0302504194387194e+02 0 0 0
1836 74 2 0.0000000000000000e+00 -3.0733434882510636e+01 -1.7813663319995211e+01 -1.1266735551858530e+02 0 0 0
3075 123 3 0.0000000000000000e+00 -7.3325112363620264e+01 -5.5193766566949147e+00 -1.0996678013353593e+02 0 0 0
1979 80 2 0.0000000000000000e+00 -7.5444990539053066e+01 1.5770129015369988e-01 -1.0005818515036017e+02 0 0 0
1981 80 2 0.0000000000000000e+00 -8.0336370441538364e+01 4.9341797317896861e+00 -1.0987365467693911e+02 0 0 0
577 24 2 0.0000000000000000e+00 -3.0251718102558673e+01 -2.8928768112181169e+00 -1.0867290265085286e+02 0 0 0
1175 47 1 0.0000000000000000e+00 -2.8725020637548102e+01 5.1075136226802815e+00 -1.0326212984719577e+02 0 0 0
2701 109 3 0.0000000000000000e+00 -7.0431657545646928e+01 1.7673539611918358e+01 -1.0168130856763031e+02 0 0 0
1980 80 2 0.0000000000000000e+00 -7.2154592366568295e+01 8.0002117514171793e+00 -1.0459453473794296e+02 0 0 0
2058 83 2 0.0000000000000000e+00 -6.4007761482872908e+01 7.6220866061775885e+00 -1.1107256801125220e+02 0 0 0
2057 83 1 0.0000000000000000e+00 -6.0674093201420909e+01 1.2332341208898356e+01 -1.0276508034464270e+02 0 0 0
4881 196 4 0.0000000000000000e+00 -4.1870895341337629e+01 9.5350612267795452e+00 -1.0753543461017566e+02 0 0 0
4882 196 3 0.0000000000000000e+00 -3.2513589328051680e+01 1.0242129105084237e+01 -1.1155671582694312e+02 0 0 0
4883 196 4 0.0000000000000000e+00 -2.5582659714925210e+01 1.4847304645168281e+01 -1.0594281404007337e+02 0 0 0
1944 78 1 0.0000000000000000e+00 -5.5115417719803382e+01 -1.1578180770851797e+02 -9.2736347176831885e+01 0 0 0
4162 167 4 0.0000000000000000e+00 -1.0601840720751105e+02 -1.0361048614389934e+02 -9.8199386049446488e+01 0 0 0
4163 167 3 0.0000000000000000e+00 -1.0799378315482066e+02 -1.0421309597726631e+02 -8.8438214875013145e+01 0 0 0
1943 78 2 0.0000000000000000e+00 -6.4910190961604357e+01 -1.1220490964718030e+02 -9.1915807420391502e+01 0 0 0
3976 160 3 0.0000000000000000e+00 -5.4354516551502385e+01 -1.0541370720350859e+02 -8.8045755762543749e+01 0 0 0
1945 78 2 0.0000000000000000e+00 -4.6080773733358157e+01 -1.1150896639018337e+02 -9.0850780180608211e+01 0 0 0
1947 78 2 0.0000000000000000e+00 -2.9147745897470294e+01 -1.0808516425765694e+02 -9.1166064290953983e+01 0 0 0
1946 78 2 0.0000000000000000e+00 -3.6837616292801322e+01 -1.1177551370858070e+02 -8.6201833356437362e+01 0 0 0
1948 78 2 0.0000000000000000e+00 -2.8031184795331985e+01 -1.0282942912544569e+02 -9.9615745332515289e+01 0 0 0
1651 67 1 0.0000000000000000e+00 -9.7565811357397479e+01 -1.0014447231090141e+02 -9.0435973723746216e+01 0 0 0
1652 67 2 0.0000000000000000e+00 -9.7405714511810899e+01 -9.0676240997735647e+01 -9.4320512683951875e+01 0 0 0
4949 198 4 0.0000000000000000e+00 -8.5678965682315663e+01 -9.1863988990818370e+01 -9.5940423182360036e+01 0 0 0
3977 160 4 0.0000000000000000e+00 -5.7026588258572872e+01 -9.5965502650830302e+01 -8.7183385197077641e+01 0 0 0
1653 67 2 0.0000000000000000e+00 -9.3403941700530751e+01 -8.1315090452748919e+01 -9.5798104715299871e+01 0 0 0
4946 198 4 0.0000000000000000e+00 -8.2227518753251658e+01 -7.5710512422185275e+01 -8.6221760216453816e+01 0 0 0
4945 198 4 0.0000000000000000e+00 -7.2289029315960477e+01 -7.4733008914690444e+01 -8.9035095410382752e+01 0 0 0
2351 95 1 0.0000000000000000e+00 -3.9854532898627433e+01 -7.7303540246563330e+01 -8.9625611365336383e+01 0 0 0
2352 95 2 0.0000000000000000e+00 -2.9573394920490582e+01 -7.6313980378456549e+01 -8.9923362389062106e+01 0 0 0
1654 67 2 0.0000000000000000e+00 -9.2890043401974182e+01 -7.0797912614320325e+01 -9.7202530460568056e+01 0 0 0
1655 67 2 0.0000000000000000e+00 -9.0871230851089507e+01 -6.1103257994816062e+01 -9.6529531302800720e+01 0 0 0
1656 67 2 0.0000000000000000e+00 -8.3964260108824902e+01 -5.6217297289087206e+01 -9.0894329371026515e+01 0 0 0
4386 176 4 0.0000000000000000e+00 -6.2726868624499609e+01 -5.0920042267312873e+01 -9.2522925954364851e+01 0 0 0
1159 47 2 0.0000000000000000e+00 -4.2910478923033686e+01 -4.8414985688224924e+01 -8.9355260268157252e+01 0 0 0
1160 47 2 0.0000000000000000e+00 -3.4695305427312128e+01 -5.1047897822249745e+01 -9.3809800826544986e+01 0 0 0
1161 47 2 0.0000000000000000e+00 -2.6565945221889663e+01 -5.5880670420931459e+01 -9.7030594678204920e+01 0 0 0
598 24 2 0.0000000000000000e+00 -1.0020731752952423e+02 -4.7481500016536593e+01 -8.8985192257743762e+01 0 0 0
597 24 2 0.0000000000000000e+00 -1.0112079177909783e+02 -4.0046015045232515e+01 -9.5183862230011044e+01 0 0 0
3076 124 3 0.0000000000000000e+00 -8.1339693844543362e+01 -4.3457591863016269e+01 -8.9832242884735464e+01 0 0 0
3987 160 4 0.0000000000000000e+00 -9.0296050135425972e+01 -3.9455613770550130e+01 -8.8082028370943817e+01 0 0 0
3077 124 4 0.0000000000000000e+00 -7.4907272443910273e+01 -3.6076005248237514e+01 -9.1127134887002072e+01 0 0 0
3078 124 4 0.0000000000000000e+00 -6.6234632354650401e+01 -3.9344289812509487e+01 -9.4918448242786496e+01 0 0 0
2723 109 4 0.0000000000000000e+00 -5.1250359634872446e+01 -3.5449855314420958e+01 -9.1600885111938553e+01 0 0 0
2724 109 4 0.0000000000000000e+00 -4.3686086207996091e+01 -4.0193718897234241e+01 -9.5942605796937258e+01 0 0 0
3298 132 4 0.0000000000000000e+00 -2.8286494363840792e+01 -3.7568984185101037e+01 -9.2564704680269983e+01 0 0 0
3989 160 4 0.0000000000000000e+00 -9.8366380755385975e+01 -2.2229215179488428e+01 -9.4720289215174404e+01 0 0 0
3988 160 3 0.0000000000000000e+00 -9.5266583349481920e+01 -3.0759563972375236e+01 -9.0003590783933561e+01 0 0 0
1976 80 1 0.0000000000000000e+00 -8.8457469944632791e+01 -2.2472281757438040e+01 -8.6547489283437685e+01 0 0 0
2722 109 4 0.0000000000000000e+00 -5.7954117824313876e+01 -3.0606773901563162e+01 -9.7000807275555559e+01 0 0 0
2721 109 4 0.0000000000000000e+00 -6.0191945745440620e+01 -2.3654215937875172e+01 -8.9781214611009432e+01 0 0 0
3299 132 4 0.0000000000000000e+00 -2.8725242865405743e+01 -2.7582569714971143e+01 -9.4726120410932523e+01 0 0 0
4182 168 3 0.0000000000000000e+00 -1.2175398087329270e+02 -7.4849747474145012e+00 -9.8403028189334464e+01 0 0 0
3990 160 4 0.0000000000000000e+00 -1.0388273200121554e+02 -1.3983847433454763e+01 -9.6752835444790648e+01 0 0 0
1977 80 2 0.0000000000000000e+00 -8.5047190611030004e+01 -1.4660981237328032e+01 -9.1969780570856116e+01 0 0 0
1978 80 2 0.0000000000000000e+00 -7.8306933224075863e+01 -8.1449998666042873e+00 -9.4726531988433024e+01 0 0 0
1172 47 2 0.0000000000000000e+00 -4.1674599464183046e+01 -1.4482849779219707e+01 -9.5536889950545572e+01 0 0 0
3300 132 3 0.0000000000000000e+00 -3.2075526461095663e+01 -1.9233803799867207e+01 -8.9998630286224767e+01 0 0 0
476 20 1 0.0000000000000000e+00 -1.2677759243598042e+02 -4.2922170718809127e+00 -8.8942863172280852e+01 0 0 0
4181 168 4 0.0000000000000000e+00 -1.1728622507134848e+02 1.2172464701578150e+00 -9.7398994737279622e+01 0 0 0
4180 168 4 0.0000000000000000e+00 -1.1757744726604250e+02 -3.4126369449373430e+00 -8.8883966093139620e+01 0 0 0
1173 47 2 0.0000000000000000e+00 -3.7170223525428547e+01 -5.7972312541902467e+00 -9.5360311632952062e+01 0 0 0
1174 47 2 0.0000000000000000e+00 -3.6993821949974290e+01 3.6220522159235169e+00 -9.6695995442827893e+01 0 0 0
4879 196 4 0.0000000000000000e+00 -5.4645862538665490e+01 1.1010876461260839e+01 -9.2024134913712047e+01 0 0 0
4880 196 4 0.0000000000000000e+00 -4.6934977095586596e+01 1.2080317710040170e+01 -9.8690299034158514e+01 0 0 0