LAMMPS data file via write_data, version 5 Jun 2019, timestep = 370000000

5000 atoms
4 atom types
5292 bonds
3 bond types
4600 angles
2 angle types

-2.5000000000000000e+02 2.5000000000000000e+02 xlo xhi
-2.5000000000000000e+02 2.5000000000000000e+02 ylo yhi
-2.5000000000000000e+02 2.5000000000000000e+02 zlo zhi

Masses

1 1000
2 1000
3 1000
4 1000

Pair Coeffs # lj/cut

1 0.18 10
2 0.18 10
3 0.18 10
4 0.18 10

Bond Coeffs # harmonic

1 3 10
2 3 10
3 3 11.22

Angle Coeffs # cosine

1 2
2 2

Atoms # full

4466 179 4 0.0000000000000000e+00 -1.9416055616835212e+01 -3.3919134667598123e+00 -1.9561779718163069e+02 0 0 0
4465 179 4 0.0000000000000000e+00 -2.9029895564978741e+01 -2.9856927413919743e+00 -1.9345841589681854e+02 0 0 0
4467 179 4 0.0000000000000000e+00 -1.5585626987919380e+01 5.7218872409116912e+00 -1.9290803133578157e+02 0 0 0
4468 179 4 0.0000000000000000e+00 -1.3553769802023577e+01 1.6161638547883161e+01 -1.9201911155624717e+02 0 0 0
4464 179 4 0.0000000000000000e+00 -2.8867897970405721e+01 -3.6671730713617330e+00 -1.8315690617342182e+02 0 0 0
3269 131 3 0.0000000000000000e+00 -1.8746062517283444e+00 -1.5390602322909702e+01 -1.7942103944556621e+02 0 0 0
1826 74 1 0.0000000000000000e+00 3.7322781964728504e+00 -9.9298555582962749e+00 -1.8672441859204670e+02 0 0 0
1827 74 2 0.0000000000000000e+00 5.5763840969389422e+00 -3.1869092429876669e+00 -1.7979574625921151e+02 0 0 0
1453 59 2 0.0000000000000000e+00 -3.2240075921761843e+01 2.0908631512968306e+01 -1.8252978584427854e+02 0 0 0
1454 59 2 0.0000000000000000e+00 -2.6581962871538305e+01 1.2791243155331609e+01 -1.8526793236832017e+02 0 0 0
1455 59 2 0.0000000000000000e+00 -1.8170972880200935e+01 1.2311089574753876e+01 -1.7962902322407078e+02 0 0 0
4469 179 3 0.0000000000000000e+00 -6.8286044141808810e+00 2.2775309763293944e+01 -1.8887402547718247e+02 0 0 0
3208 129 4 0.0000000000000000e+00 2.7037543817052394e+00 2.1398952339039749e+01 -1.7809578773755285e+02 0 0 0
4777 192 4 0.0000000000000000e+00 -2.1284992534410623e+01 -3.1651221568418276e+01 -1.6422368637918743e+02 0 0 0
4778 192 4 0.0000000000000000e+00 -2.2949819065892434e+01 -2.4572411426593860e+01 -1.7145143803342509e+02 0 0 0
3268 131 4 0.0000000000000000e+00 7.0040859397071991e+00 -1.8699214365697948e+01 -1.7531026223898499e+02 0 0 0
3267 131 4 0.0000000000000000e+00 1.5884528614063189e+01 -2.0811103879144941e+01 -1.7110465890896452e+02 0 0 0
3266 131 4 0.0000000000000000e+00 2.5066864687702335e+01 -2.0291000990366673e+01 -1.6753506195249452e+02 0 0 0
4462 179 4 0.0000000000000000e+00 -3.7285535061286438e+01 -3.4768327111782860e+00 -1.6644236331791106e+02 0 0 0
4779 192 4 0.0000000000000000e+00 -2.4060132685687329e+01 -1.5066395148846160e+01 -1.6912841578484580e+02 0 0 0
4780 192 4 0.0000000000000000e+00 -2.0197416508280963e+01 -5.7180925864107142e+00 -1.6681635363952768e+02 0 0 0
3271 131 4 0.0000000000000000e+00 -1.0810925211349170e+01 -1.4915562338735549e+01 -1.6731038671950614e+02 0 0 0
3270 131 4 0.0000000000000000e+00 -1.1532729350463249e+01 -1.1465281281411155e+01 -1.7668595332432167e+02 0 0 0
1829 74 2 0.0000000000000000e+00 -2.9422539165833208e+00 -8.8413469916627090e+00 -1.6280170830098513e+02 0 0 0
1828 74 2 0.0000000000000000e+00 -2.9330633602394213e-01 -5.9808970179490650e+00 -1.7214039883321701e+02 0 0 0
3202 129 4 0.0000000000000000e+00 3.7120250030204346e+01 -1.3447713231663407e+01 -1.6931693392807813e+02 0 0 0
3203 129 4 0.0000000000000000e+00 2.9190558645349679e+01 -8.0836288946560249e+00 -1.6880503528383991e+02 0 0 0
3067 123 4 0.0000000000000000e+00 -5.0958897223290592e+01 7.4886913923363876e+00 -1.6493262035651975e+02 0 0 0
4463 179 3 0.0000000000000000e+00 -3.0279340621121602e+01 -2.8113346726813906e+00 -1.7333958131763359e+02 0 0 0
2244 90 1 0.0000000000000000e+00 -3.3926879758003054e+01 6.2269915915785523e+00 -1.6660791949104768e+02 0 0 0
1456 59 2 0.0000000000000000e+00 -8.9538798528903900e+00 9.2981348497792382e+00 -1.7677782826468376e+02 0 0 0
4781 192 4 0.0000000000000000e+00 -1.0998804830440141e+01 -1.4494207581784622e+00 -1.6524926455828358e+02 0 0 0
4782 192 3 0.0000000000000000e+00 -6.7946207533643737e+00 7.9195230838119706e+00 -1.6397548649172674e+02 0 0 0
1457 59 1 0.0000000000000000e+00 -2.9207164285087189e-01 7.1343427431728657e+00 -1.7330423074569677e+02 0 0 0
1458 59 2 0.0000000000000000e+00 5.6585011880146894e+00 3.2862236599814394e+00 -1.6666273205072645e+02 0 0 0
3204 129 4 0.0000000000000000e+00 2.3115543338100114e+01 -5.2850865366050304e-01 -1.6666115284638877e+02 0 0 0
3205 129 4 0.0000000000000000e+00 1.8074173511227670e+01 5.4516057927090369e+00 -1.7224483230477279e+02 0 0 0
4189 168 4 0.0000000000000000e+00 -8.0615549035008783e+01 2.0881723505730893e+01 -1.6720691570902756e+02 0 0 0
4190 168 4 0.0000000000000000e+00 -7.2791408644427221e+01 1.4032115419338959e+01 -1.6803302301176129e+02 0 0 0
1997 80 2 0.0000000000000000e+00 -6.9508037509690951e+01 2.2831872809475911e+01 -1.6475206785086476e+02 0 0 0
3066 123 4 0.0000000000000000e+00 -4.5103195386616605e+01 1.4279914832823088e+01 -1.6798051632950751e+02 0 0 0
3065 123 4 0.0000000000000000e+00 -4.2312622453299497e+01 2.1979360117543191e+01 -1.7400524168431889e+02 0 0 0
2243 90 2 0.0000000000000000e+00 -2.7629970253240312e+01 1.3929166171766271e+01 -1.6710698838776838e+02 0 0 0
2241 90 2 0.0000000000000000e+00 -1.3819065674307176e+01 1.4878907258618177e+01 -1.7054026174970446e+02 0 0 0
2240 90 2 0.0000000000000000e+00 -1.1666680571540235e+01 2.2818678297114907e+01 -1.7633299450789397e+02 0 0 0
3207 129 3 0.0000000000000000e+00 3.3494044348839029e+00 1.8664345664085236e+01 -1.6877195034460752e+02 0 0 0
3206 129 4 0.0000000000000000e+00 9.8300552560972587e+00 1.1599220232773797e+01 -1.7212708642975855e+02 0 0 0
3210 129 4 0.0000000000000000e+00 1.9350395827011130e+01 1.7845747216788855e+01 -1.7461410114267261e+02 0 0 0
3211 129 4 0.0000000000000000e+00 2.5903022739698351e+01 1.3079176224709341e+01 -1.6842389179938411e+02 0 0 0
2390 96 2 0.0000000000000000e+00 -5.5068239073467517e+01 -4.1770411602178676e+01 -1.5001256227675955e+02 0 0 0
1850 74 1 0.0000000000000000e+00 -2.1581147028539966e+01 -3.5044820173443519e+01 -1.5186757952410233e+02 0 0 0
4776 192 3 0.0000000000000000e+00 -1.2774887907914108e+01 -3.2751429042908292e+01 -1.5864022899438544e+02 0 0 0
3167 127 4 0.0000000000000000e+00 -7.6776616640398515e+01 -1.9631294653435489e+01 -1.5375608625498836e+02 0 0 0
584 24 2 0.0000000000000000e+00 -6.1351767186277890e+01 -1.7030903964391136e+01 -1.4879068211909330e+02 0 0 0
1849 74 2 0.0000000000000000e+00 -2.1559564814395522e+01 -2.5374564577476107e+01 -1.5393259430603308e+02 0 0 0
1848 74 2 0.0000000000000000e+00 -1.5478856905691812e+01 -1.8188808652588278e+01 -1.5112992047468916e+02 0 0 0
3273 131 4 0.0000000000000000e+00 -5.7764807595050556e+00 -2.5855755299878780e+01 -1.5137657496395187e+02 0 0 0
3272 131 4 0.0000000000000000e+00 -8.7292343810089843e+00 -1.9783504715310350e+01 -1.5955899987859686e+02 0 0 0
3265 131 4 0.0000000000000000e+00 2.7862302373305088e+01 -2.3248007649649225e+01 -1.5862353577965720e+02 0 0 0
3264 131 4 0.0000000000000000e+00 3.3138725195264627e+01 -2.3297517884762467e+01 -1.5017095672938257e+02 0 0 0
3166 127 4 0.0000000000000000e+00 -6.9481636057459198e+01 -1.2553051845273920e+01 -1.5275891431411557e+02 0 0 0
3165 127 4 0.0000000000000000e+00 -6.5003445020780106e+01 -4.0626373158342197e+00 -1.5350277732016968e+02 0 0 0
3069 123 3 0.0000000000000000e+00 -4.6471805966028185e+01 -4.1802183616694828e+00 -1.4902873869072806e+02 0 0 0
4461 179 4 0.0000000000000000e+00 -3.0302622480865114e+01 -8.4722871075354096e+00 -1.6234603537690720e+02 0 0 0
4460 179 4 0.0000000000000000e+00 -2.4583466339349492e+01 -1.4889128100634911e+01 -1.5790223149899978e+02 0 0 0
4459 179 4 0.0000000000000000e+00 -1.7953798206109727e+01 -7.1161769862960105e+00 -1.5627999176345222e+02 0 0 0
1830 74 2 0.0000000000000000e+00 -7.0251387988046421e+00 -5.1492735615408325e+00 -1.5459976183360101e+02 0 0 0
1460 59 2 0.0000000000000000e+00 1.0973206364115432e+01 -9.0534022431363681e+00 -1.5231666594194257e+02 0 0 0
1461 59 2 0.0000000000000000e+00 1.8459346339805418e+01 -1.5211859885320894e+01 -1.5375553937363554e+02 0 0 0
460 19 2 0.0000000000000000e+00 3.7993355095193436e+01 -9.2967986994420606e+00 -1.4834625144289228e+02 0 0 0
4192 168 4 0.0000000000000000e+00 -7.2959694691245247e+01 1.8877328297806608e+00 -1.5573351234364603e+02 0 0 0
3164 127 4 0.0000000000000000e+00 -6.2051650802541893e+01 5.0066438910717883e+00 -1.5094049911729618e+02 0 0 0
4191 168 4 0.0000000000000000e+00 -6.7852497828893306e+01 8.7005971443186070e+00 -1.6196499537175845e+02 0 0 0
3068 123 4 0.0000000000000000e+00 -4.8185333962235944e+01 -2.5020325078035630e-02 -1.5908991371290941e+02 0 0 0
3163 127 3 0.0000000000000000e+00 -5.3202405261946801e+01 9.0031540040775315e+00 -1.5275128869941824e+02 0 0 0
2245 90 2 0.0000000000000000e+00 -4.1369936880510792e+01 7.7317679018876557e+00 -1.6049693112821632e+02 0 0 0
4783 192 4 0.0000000000000000e+00 -4.2524163211025350e+00 7.3538752898007473e+00 -1.5435276656086944e+02 0 0 0
1459 59 2 0.0000000000000000e+00 7.6533110879823747e+00 -1.3019829499436859e+00 -1.5830071386929114e+02 0 0 0
3402 137 4 0.0000000000000000e+00 1.4277107631421766e+01 9.1567788267690737e+00 -1.5670095311962666e+02 0 0 0
3401 137 3 0.0000000000000000e+00 1.8109274028546260e+01 6.3403600467304450e-02 -1.5414578944614124e+02 0 0 0
462 19 2 0.0000000000000000e+00 3.8246605997664972e+01 5.2816310075399659e+00 -1.6135634005893488e+02 0 0 0
461 19 2 0.0000000000000000e+00 3.8212320175824530e+01 -2.4166175418021441e+00 -1.5497805482796682e+02 0 0 0
4186 168 4 0.0000000000000000e+00 -9.9132824552269383e+01 2.1736623409726544e+01 -1.5095768822847549e+02 0 0 0
4187 168 4 0.0000000000000000e+00 -9.5634396649384357e+01 2.3327354183829573e+01 -1.6037485032485120e+02 0 0 0
1996 80 2 0.0000000000000000e+00 -7.3413227020679145e+01 1.6983563770970324e+01 -1.5770135254339561e+02 0 0 0
1995 80 2 0.0000000000000000e+00 -7.3820288322366110e+01 1.1566804600280184e+01 -1.4916908520156292e+02 0 0 0
3162 127 4 0.0000000000000000e+00 -5.6797580492360623e+01 1.8575481639572871e+01 -1.5424931794470044e+02 0 0 0
2246 90 2 0.0000000000000000e+00 -4.1604320825151454e+01 1.7422756725316738e+01 -1.5626367563829788e+02 0 0 0
2242 90 2 0.0000000000000000e+00 -1.8650432373130986e+01 1.3658789618634474e+01 -1.6207773612796987e+02 0 0 0
1055 43 2 0.0000000000000000e+00 -2.2249010010450732e+01 2.3986128862585520e+01 -1.4868272140340144e+02 0 0 0
3405 137 4 0.0000000000000000e+00 -4.4929261952361621e+00 2.1877564556489812e+01 -1.6017748713119474e+02 0 0 0
3404 137 4 0.0000000000000000e+00 4.2089365926699323e+00 2.2120576134521883e+01 -1.5516845092150783e+02 0 0 0
3403 137 4 0.0000000000000000e+00 1.0124908502626623e+01 1.5589132410891073e+01 -1.5073957271825577e+02 0 0 0
409 17 2 0.0000000000000000e+00 2.1452721543606138e+01 1.5271354715223813e+01 -1.5133541943469186e+02 0 0 0
408 17 2 0.0000000000000000e+00 1.6080395257272787e+01 2.1270072670151020e+01 -1.5696843238105288e+02 0 0 0
3212 129 4 0.0000000000000000e+00 3.2672549130482217e+01 1.5132670783349358e+01 -1.6151302938998765e+02 0 0 0
2393 96 2 0.0000000000000000e+00 -6.4819218913963667e+01 -6.3382409727242511e+01 -1.3707156889707764e+02 0 0 0
2392 96 2 0.0000000000000000e+00 -5.6160229026415934e+01 -5.7394787310692351e+01 -1.3917972486852651e+02 0 0 0
2391 96 2 0.0000000000000000e+00 -5.5418803053875600e+01 -5.1464637025612724e+01 -1.4710266453421437e+02 0 0 0
4316 173 4 0.0000000000000000e+00 3.4753785894577909e+01 -4.8726249996470230e+01 -1.3450595251032428e+02 0 0 0
3169 127 3 0.0000000000000000e+00 -7.5723022605473105e+01 -3.3094629729145112e+01 -1.3954853613316695e+02 0 0 0
2389 96 2 0.0000000000000000e+00 -5.5929207782900178e+01 -3.2420601060645282e+01 -1.4504893454600034e+02 0 0 0
3173 127 4 0.0000000000000000e+00 -4.3178433635799905e+01 -3.6893270790118919e+01 -1.3668334429537185e+02 0 0 0
3274 131 4 0.0000000000000000e+00 -5.9142520227963011e+00 -3.3968587088302208e+01 -1.4513895163920333e+02 0 0 0
3275 131 3 0.0000000000000000e+00 -5.8870027224166153e+00 -4.3367610809466406e+01 -1.4076753353014294e+02 0 0 0
1464 59 2 0.0000000000000000e+00 3.1113389848466241e+01 -3.5615358684060794e+01 -1.3569353743198621e+02 0 0 0
588 24 1 0.0000000000000000e+00 -8.4760841175091485e+01 -2.7939940510110546e+01 -1.3523688675443148e+02 0 0 0
3168 127 4 0.0000000000000000e+00 -7.6595106531472823e+01 -2.7066513872507560e+01 -1.4751946158673849e+02 0 0 0
587 24 2 0.0000000000000000e+00 -8.2111959636897055e+01 -1.9395870403312202e+01 -1.3914592602039764e+02 0 0 0
585 24 2 0.0000000000000000e+00 -7.0377418050061564e+01 -1.8532198732326609e+01 -1.4481288444163656e+02 0 0 0
3174 127 4 0.0000000000000000e+00 -4.2628312975636440e+01 -2.9621780140734320e+01 -1.4420614384125219e+02 0 0 0
2388 96 1 0.0000000000000000e+00 -5.1788567110229117e+01 -2.3405834177038241e+01 -1.4473202358335917e+02 0 0 0
3175 127 3 0.0000000000000000e+00 -4.0964693577443136e+01 -2.0320629996347311e+01 -1.4737994989735719e+02 0 0 0
1845 74 2 0.0000000000000000e+00 -4.6314367591465384e+00 -2.0166278009583589e+01 -1.3570944584787586e+02 0 0 0
1462 59 2 0.0000000000000000e+00 2.2532813676263654e+01 -2.1886491979200695e+01 -1.4681540039150849e+02 0 0 0
1463 59 1 0.0000000000000000e+00 2.6327173691054579e+01 -3.0536185463383195e+01 -1.4337313717332347e+02 0 0 0
3263 131 3 0.0000000000000000e+00 3.5711096914646475e+01 -2.4987277593295058e+01 -1.4082345945619306e+02 0 0 0
586 24 2 0.0000000000000000e+00 -7.8437315381244005e+01 -1.1770815644303346e+01 -1.4422555207766425e+02 0 0 0
2387 96 2 0.0000000000000000e+00 -5.3641897130513840e+01 -1.6415119507091227e+01 -1.3872470103818807e+02 0 0 0
583 24 2 0.0000000000000000e+00 -5.3397421081780408e+01 -1.1236665329842324e+01 -1.4605771597827618e+02 0 0 0
582 24 1 0.0000000000000000e+00 -4.8249159017689216e+01 -7.2162687022147978e+00 -1.3839135000828975e+02 0 0 0
3070 123 4 0.0000000000000000e+00 -3.7186172467428122e+01 -4.0825138767276155e+00 -1.4766889317174611e+02 0 0 0
3071 123 4 0.0000000000000000e+00 -3.5985017168896135e+01 -1.1569646285373093e+01 -1.3988609120952594e+02 0 0 0
4458 179 4 0.0000000000000000e+00 -1.4913608162431473e+01 -3.6610473028703154e+00 -1.4765502786236863e+02 0 0 0
1847 74 2 0.0000000000000000e+00 -6.8154720797701787e+00 -1.5055108757162708e+01 -1.4732981557274942e+02 0 0 0
1832 74 1 0.0000000000000000e+00 -9.1402961107125940e+00 -6.5768266768992083e+00 -1.3693930968396225e+02 0 0 0
1846 74 2 0.0000000000000000e+00 1.7018231788245302e+00 -1.6495375521825334e+01 -1.4247939663392498e+02 0 0 0
457 19 1 0.0000000000000000e+00 1.7681632344467488e+01 -5.2423236422831403e+00 -1.4463898761057322e+02 0 0 0
456 19 2 0.0000000000000000e+00 2.3378086593677534e+01 -1.1214917863622471e+01 -1.3891563299099019e+02 0 0 0
4193 168 4 0.0000000000000000e+00 -7.4181282917567032e+01 -1.9017225861029081e+00 -1.4679286832549693e+02 0 0 0
4194 168 3 0.0000000000000000e+00 -7.2290729733251666e+01 -1.9663722457474764e+00 -1.3675804997150158e+02 0 0 0
1994 80 1 0.0000000000000000e+00 -7.6555498973312709e+01 7.4796188213121049e+00 -1.4069769773911358e+02 0 0 0
4457 179 3 0.0000000000000000e+00 -1.7153063244746168e+01 9.5437688990465852e-01 -1.3905866836702489e+02 0 0 0
1831 74 2 0.0000000000000000e+00 -5.6867924170830175e+00 -1.5936812076136866e+00 -1.4456355258157396e+02 0 0 0
4784 192 4 0.0000000000000000e+00 1.6408341929269794e+00 9.5682258852928417e+00 -1.4639550192248632e+02 0 0 0
4785 192 4 0.0000000000000000e+00 7.8171687718035825e+00 4.4663526361173584e+00 -1.4026079781161050e+02 0 0 0
459 19 2 0.0000000000000000e+00 3.6596034571032199e+01 -2.7184588998530863e+00 -1.4129969518069814e+02 0 0 0
411 17 2 0.0000000000000000e+00 2.7250898932845104e+01 7.6624540058883888e+00 -1.3506478509604491e+02 0 0 0
458 19 2 0.0000000000000000e+00 2.7074738077083946e+01 -1.7570260710628607e+00 -1.4347111875772455e+02 0 0 0
4183 168 4 0.0000000000000000e+00 -1.2112561762371695e+02 2.1100317685024862e+01 -1.3514048185349091e+02 0 0 0
4184 168 4 0.0000000000000000e+00 -1.1132913788128680e+02 2.3697845805428461e+01 -1.3610200726226407e+02 0 0 0
4185 168 4 0.0000000000000000e+00 -1.0605870935284860e+02 2.4112438767186234e+01 -1.4451337393141679e+02 0 0 0
3160 127 4 0.0000000000000000e+00 -7.0788418144013306e+01 2.1888010487835373e+01 -1.4276615807256226e+02 0 0 0
3161 127 4 0.0000000000000000e+00 -6.2661292405778177e+01 1.7040549749762864e+01 -1.4550385472952621e+02 0 0 0
2075 83 1 0.0000000000000000e+00 -4.8387620430621048e+01 1.6565564590741204e+01 -1.4621876191185299e+02 0 0 0
2074 83 2 0.0000000000000000e+00 -5.1028069895020032e+01 1.4260515471155696e+01 -1.3670798618838111e+02 0 0 0
1056 43 2 0.0000000000000000e+00 -1.3138151051455935e+01 2.0617525609738820e+01 -1.4529120906461642e+02 0 0 0
1057 43 1 0.0000000000000000e+00 -2.5561101628652243e+00 2.1339621929619312e+01 -1.4487954490409086e+02 0 0 0
3181 128 4 0.0000000000000000e+00 6.6671838728412403e-01 1.7155618328097791e+01 -1.3608043524222907e+02 0 0 0
4786 192 4 0.0000000000000000e+00 1.4183926717827688e+01 1.1497737107598125e+01 -1.3768195051578786e+02 0 0 0
410 17 2 0.0000000000000000e+00 2.2017023818407935e+01 1.1279858167352865e+01 -1.4246645325330999e+02 0 0 0
4787 192 4 0.0000000000000000e+00 2.1955770423476586e+01 1.5669408571496160e+01 -1.3444220447436282e+02 0 0 0
4378 176 4 0.0000000000000000e+00 -8.1366262608700296e+01 -8.5640936160424701e+01 -1.2248328976426218e+02 0 0 0
4377 176 4 0.0000000000000000e+00 -7.7079996446949707e+01 -7.6641212621060319e+01 -1.2122730750791965e+02 0 0 0
4312 173 4 0.0000000000000000e+00 3.6259431363362786e+01 -7.3946333979854700e+01 -1.2327628018452999e+02 0 0 0
2395 96 2 0.0000000000000000e+00 -8.3389634430520147e+01 -6.5828670856330675e+01 -1.2940596493962158e+02 0 0 0
2394 96 1 0.0000000000000000e+00 -7.3606337194944260e+01 -6.6003152807834852e+01 -1.3349383695076645e+02 0 0 0
4376 176 3 0.0000000000000000e+00 -7.4355073755811873e+01 -6.7437754134951859e+01 -1.2223666027603083e+02 0 0 0
591 24 2 0.0000000000000000e+00 -9.2073964428690587e+01 -4.6032085637535772e+01 -1.2138529825405850e+02 0 0 0
265 11 2 0.0000000000000000e+00 -3.1469075029838120e+01 -4.4534555462093877e+01 -1.1944979770948827e+02 0 0 0
266 11 2 0.0000000000000000e+00 -2.3583961669447977e+01 -4.8622250878378104e+01 -1.2526346543540912e+02 0 0 0
267 11 2 0.0000000000000000e+00 -1.3620741771676153e+01 -5.2330694411683247e+01 -1.2394859168852190e+02 0 0 0
268 11 2 0.0000000000000000e+00 -5.8152096911956361e+00 -5.6120242539535653e+01 -1.2909487678931518e+02 0 0 0
269 11 1 0.0000000000000000e+00 -8.2271381529029819e-01 -4.7158951186712905e+01 -1.3071493004671674e+02 0 0 0
270 11 2 0.0000000000000000e+00 5.2727922888086542e+00 -4.5813978530045539e+01 -1.2297217633159129e+02 0 0 0
4317 173 4 0.0000000000000000e+00 2.9104573988723196e+01 -5.1024257663962160e+01 -1.2665327081347779e+02 0 0 0
589 24 2 0.0000000000000000e+00 -9.3695509152531997e+01 -3.2383346343504719e+01 -1.3215252673948652e+02 0 0 0
590 24 2 0.0000000000000000e+00 -9.1017764161067760e+01 -4.1773085282073950e+01 -1.2949101897929532e+02 0 0 0
3170 127 4 0.0000000000000000e+00 -7.2243788636646329e+01 -3.8002707763328836e+01 -1.3141991697587483e+02 0 0 0
3171 127 4 0.0000000000000000e+00 -6.1891434154369442e+01 -3.8384920596078310e+01 -1.3226555004296566e+02 0 0 0
3172 127 4 0.0000000000000000e+00 -5.1914213465760717e+01 -3.8504982474238062e+01 -1.3173479476561988e+02 0 0 0
264 11 2 0.0000000000000000e+00 -4.0110297956934261e+01 -4.0289493985423356e+01 -1.2188366106927289e+02 0 0 0
1167 47 2 0.0000000000000000e+00 -2.0585109317232725e+01 -3.4985745780374614e+01 -1.2013624125566893e+02 0 0 0
4398 176 4 0.0000000000000000e+00 -3.9590552485110777e+00 -3.6850035501040892e+01 -1.2292576337052346e+02 0 0 0
1466 59 2 0.0000000000000000e+00 3.9037147657228765e+01 -4.1957985705579425e+01 -1.2023964763238020e+02 0 0 0
1465 59 2 0.0000000000000000e+00 3.7480525321066828e+01 -3.5039252287879897e+01 -1.2755126892529181e+02 0 0 0
3075 123 3 0.0000000000000000e+00 -6.1958395447845660e+01 -1.7968594961799205e+01 -1.2005068109684962e+02 0 0 0
3074 123 4 0.0000000000000000e+00 -5.3380579659575993e+01 -2.2495552295075992e+01 -1.2303790559709867e+02 0 0 0
3073 123 4 0.0000000000000000e+00 -4.5909150728231040e+01 -1.8460245015880304e+01 -1.2836991610848398e+02 0 0 0
3072 123 4 0.0000000000000000e+00 -3.6704386185384415e+01 -1.7624757280830792e+01 -1.3188811545653783e+02 0 0 0
4399 176 4 0.0000000000000000e+00 1.2300334337562240e+00 -2.9222642823039486e+01 -1.2822236660493155e+02 0 0 0
4400 176 3 0.0000000000000000e+00 -5.6236777151463757e-01 -2.1303112821546968e+01 -1.2345611709194793e+02 0 0 0
455 19 2 0.0000000000000000e+00 2.3874445237342396e+01 -2.0103406687513754e+01 -1.3365711091693674e+02 0 0 0
454 19 2 0.0000000000000000e+00 1.9875588459120856e+01 -2.5152854502149921e+01 -1.2544143966290952e+02 0 0 0
3262 131 4 0.0000000000000000e+00 3.8513213803886998e+01 -2.2557440725986044e+01 -1.3182478961009787e+02 0 0 0
1991 80 2 0.0000000000000000e+00 -8.3636969888935809e+01 -1.4514975034744232e+01 -1.2353349589511154e+02 0 0 0
1992 80 2 0.0000000000000000e+00 -8.1390411972242319e+01 -5.4613638316180610e+00 -1.2695239014103434e+02 0 0 0
4196 168 4 0.0000000000000000e+00 -7.0337513448089680e+01 -1.4600469763929558e+01 -1.2378608461734038e+02 0 0 0
4195 168 4 0.0000000000000000e+00 -6.7663111544671381e+01 -9.0653799289954957e+00 -1.3175335083607638e+02 0 0 0
2385 96 2 0.0000000000000000e+00 -5.8284575473090072e+01 -6.2954013137590259e+00 -1.2142020442791933e+02 0 0 0
2386 96 2 0.0000000000000000e+00 -5.4527684271116399e+01 -1.0756698175287365e+01 -1.2948055747166194e+02 0 0 0
581 24 2 0.0000000000000000e+00 -4.5663370929538992e+01 -4.7694738642156826e+00 -1.2908000331242565e+02 0 0 0
580 24 2 0.0000000000000000e+00 -4.0158024653710974e+01 -3.2126160788331215e+00 -1.2083837896431683e+02 0 0 0
1834 74 2 0.0000000000000000e+00 -1.6218096457857975e+01 -1.2825029900536038e+01 -1.2107001312418856e+02 0 0 0
1833 74 2 0.0000000000000000e+00 -1.4318221011406903e+01 -6.4070502820648558e+00 -1.2853294594103636e+02 0 0 0
1844 74 1 0.0000000000000000e+00 -9.2915740016756523e+00 -1.6782183274655594e+01 -1.2757620293467336e+02 0 0 0
1843 74 2 0.0000000000000000e+00 -6.1367613996346249e+00 -1.1165132466711885e+01 -1.1993167507315837e+02 0 0 0
3261 131 4 0.0000000000000000e+00 3.3967675366430193e+01 -1.6268715210616531e+01 -1.2459183586209045e+02 0 0 0
413 17 1 0.0000000000000000e+00 4.0450266689387149e+01 -4.2081585478741577e+00 -1.2674738495776414e+02 0 0 0
1993 80 2 0.0000000000000000e+00 -7.8927489458686281e+01 2.0886172761761710e+00 -1.3295504491177056e+02 0 0 0
579 24 2 0.0000000000000000e+00 -2.9858924545398704e+01 -2.5538047743645502e+00 -1.2036296693393646e+02 0 0 0
4456 179 4 0.0000000000000000e+00 -1.9767681539371114e+01 5.4079027168046574e+00 -1.3066498529673669e+02 0 0 0
576 24 1 0.0000000000000000e+00 -4.3807185552730488e+00 6.4131506941284071e+00 -1.2188286376867066e+02 0 0 0
3179 128 4 0.0000000000000000e+00 1.3599701803114888e+01 6.5237002931807746e+00 -1.2435797743231285e+02 0 0 0
412 17 2 0.0000000000000000e+00 3.2716586767521605e+01 -4.9632366047753285e-01 -1.3279190142166604e+02 0 0 0
4182 168 3 0.0000000000000000e+00 -1.2802425215465513e+02 2.2240702121236833e+01 -1.2804976137683167e+02 0 0 0
476 20 1 0.0000000000000000e+00 -1.1868353830771429e+02 1.6406496390594803e+01 -1.2611320066911938e+02 0 0 0
477 20 2 0.0000000000000000e+00 -1.1166169184571636e+02 1.1137409651720910e+01 -1.2150106537946104e+02 0 0 0
3997 160 4 0.0000000000000000e+00 -9.9585446440723771e+01 1.3343494331470376e+01 -1.2211069328227612e+02 0 0 0
3998 160 4 0.0000000000000000e+00 -1.0048384212016619e+02 2.2644355918941798e+01 -1.2552914571851647e+02 0 0 0
2167 87 2 0.0000000000000000e+00 -5.9331199403813159e+01 2.1480750585685279e+01 -1.2737911135191328e+02 0 0 0
2073 83 2 0.0000000000000000e+00 -4.7859254248340058e+01 1.2639198878259560e+01 -1.2729567485761942e+02 0 0 0
2166 87 2 0.0000000000000000e+00 -5.0212875657330329e+01 2.1688565242434617e+01 -1.2285546224689783e+02 0 0 0
4453 179 4 0.0000000000000000e+00 -3.9851740504926013e+01 2.0541043976413285e+01 -1.2467119626897785e+02 0 0 0
4454 179 4 0.0000000000000000e+00 -3.1310256143434120e+01 1.5448556498912922e+01 -1.2300906146991854e+02 0 0 0
4455 179 4 0.0000000000000000e+00 -2.1613614562165058e+01 1.3057379782432619e+01 -1.2497041505119294e+02 0 0 0
2163 87 1 0.0000000000000000e+00 -2.3176328923227260e+01 2.1386849512479195e+01 -1.1929744270071282e+02 0 0 0
3180 128 4 0.0000000000000000e+00 6.4541554675540977e+00 1.2413899526334406e+01 -1.2915005619892528e+02 0 0 0
3176 128 3 0.0000000000000000e+00 1.1010976572370307e-01 1.6813058096289517e+01 -1.2156762632980389e+02 0 0 0
662 27 2 0.0000000000000000e+00 1.2095819531302416e+01 2.4139989517651671e+01 -1.2664812123958473e+02 0 0 0
3178 128 4 0.0000000000000000e+00 1.8845489358717284e+01 1.4836271629146166e+01 -1.2211301385651223e+02 0 0 0
994 40 1 0.0000000000000000e+00 3.5459614557176920e+01 1.2860839225341781e+01 -1.2378108416194307e+02 0 0 0
4788 192 3 0.0000000000000000e+00 2.8560716531067527e+01 2.0603429279354110e+01 -1.2913600475570533e+02 0 0 0
4789 192 4 0.0000000000000000e+00 3.7831954400741807e+01 1.8460046035460508e+01 -1.3282615891405143e+02 0 0 0
4380 176 4 0.0000000000000000e+00 -9.1391329212278180e+01 -7.4940836049374056e+01 -1.1108471958783817e+02 0 0 0
4379 176 4 0.0000000000000000e+00 -8.7838435783702323e+01 -8.3472007977747325e+01 -1.1444070168400941e+02 0 0 0
253 11 2 0.0000000000000000e+00 -8.0022981776460057e+01 -7.7820081686558083e+01 -1.0514003801292112e+02 0 0 0
4310 173 4 0.0000000000000000e+00 3.9504924292720546e+01 -7.4294534420046602e+01 -1.1023350376739758e+02 0 0 0
2396 96 2 0.0000000000000000e+00 -8.4986320685111707e+01 -6.5828480845982398e+01 -1.1892119840491702e+02 0 0 0
2397 96 2 0.0000000000000000e+00 -9.1054269577400191e+01 -5.9523007536095882e+01 -1.1450059855842339e+02 0 0 0
4381 176 4 0.0000000000000000e+00 -9.1806512327598355e+01 -6.6215880751023192e+01 -1.0727810405138688e+02 0 0 0
254 11 2 0.0000000000000000e+00 -7.2544850107206798e+01 -7.1478337088534076e+01 -1.0644413216863194e+02 0 0 0
255 11 2 0.0000000000000000e+00 -6.4531201771646494e+01 -6.4856684451802863e+01 -1.0704469760190553e+02 0 0 0
3876 156 3 0.0000000000000000e+00 -1.6552408785462639e+01 -6.4452299321303315e+01 -1.1065032328785082e+02 0 0 0
2398 96 2 0.0000000000000000e+00 -9.8462550948869875e+01 -5.6704408404765630e+01 -1.0859485035856416e+02 0 0 0
592 24 2 0.0000000000000000e+00 -8.5343251202194821e+01 -5.1459510862506257e+01 -1.1593521971985167e+02 0 0 0
593 24 2 0.0000000000000000e+00 -8.1226789570450507e+01 -5.7621401573553470e+01 -1.0848289274934429e+02 0 0 0
2351 95 1 0.0000000000000000e+00 -1.6130418387119267e+01 -5.5241251844260987e+01 -1.0524405549932108e+02 0 0 0
4397 176 4 0.0000000000000000e+00 -2.9709162166438481e+00 -4.4444814204378950e+01 -1.1714883623254137e+02 0 0 0
4396 176 4 0.0000000000000000e+00 1.8822356147560757e+00 -4.8757491128731779e+01 -1.0934743208191131e+02 0 0 0
4318 173 4 0.0000000000000000e+00 3.5521476844446987e+01 -5.3020005817163266e+01 -1.1907231190710436e+02 0 0 0
4319 173 3 0.0000000000000000e+00 3.9650760612805477e+01 -5.5495764451497571e+01 -1.0961972650541166e+02 0 0 0
451 19 1 0.0000000000000000e+00 3.3057764342982452e+01 -4.5783915554037549e+01 -1.1076236154502121e+02 0 0 0
1988 80 1 0.0000000000000000e+00 -9.6589604871248966e+01 -3.3902136897118886e+01 -1.0647514851371345e+02 0 0 0
4200 168 3 0.0000000000000000e+00 -9.2228146379466438e+01 -4.3365247094451654e+01 -1.1015062642349585e+02 0 0 0
4199 168 4 0.0000000000000000e+00 -8.8073081109064859e+01 -3.5070954105360983e+01 -1.1334619303556475e+02 0 0 0
1984 80 2 0.0000000000000000e+00 -6.7611121155924550e+01 -4.0143966179794369e+01 -1.0639526025702601e+02 0 0 0
1983 80 2 0.0000000000000000e+00 -6.1326950216876767e+01 -3.4441643890211012e+01 -1.1243694603569880e+02 0 0 0
263 11 1 0.0000000000000000e+00 -3.8583648106409328e+01 -4.2350120692100752e+01 -1.1151820981751071e+02 0 0 0
3082 124 3 0.0000000000000000e+00 -3.2155510484255892e+01 -3.3814580734535994e+01 -1.1544538447338617e+02 0 0 0
3081 124 4 0.0000000000000000e+00 -3.9383353567837716e+01 -3.1232698424839082e+01 -1.0831200272635958e+02 0 0 0
3083 124 4 0.0000000000000000e+00 -2.4144752190072101e+01 -3.6388057232592388e+01 -1.1023819895341916e+02 0 0 0
1166 47 2 0.0000000000000000e+00 -1.7545864638740699e+01 -4.3786267003402216e+01 -1.1624295351193511e+02 0 0 0
3084 124 4 0.0000000000000000e+00 -1.5411744829920583e+01 -3.5204670879501393e+01 -1.0509147838083429e+02 0 0 0
1165 47 2 0.0000000000000000e+00 -1.0204084587788561e+01 -4.3293152566669825e+01 -1.0900508655870415e+02 0 0 0
3085 124 4 0.0000000000000000e+00 -8.3238666774021528e+00 -3.1384946991459731e+01 -1.1086507016282914e+02 0 0 0
271 11 2 0.0000000000000000e+00 1.2616347256564300e+01 -4.3266741357708597e+01 -1.1622660450712227e+02 0 0 0
272 11 2 0.0000000000000000e+00 1.6243551923905887e+01 -3.7681395527191391e+01 -1.0819090609416993e+02 0 0 0
452 19 2 0.0000000000000000e+00 2.9395012936727625e+01 -3.7865050078229288e+01 -1.1518371184546199e+02 0 0 0
1990 80 2 0.0000000000000000e+00 -8.9879545354097402e+01 -2.0154821810501605e+01 -1.1848051720482131e+02 0 0 0
1989 80 2 0.0000000000000000e+00 -9.5899523108695718e+01 -2.6490833239430504e+01 -1.1271161647669609e+02 0 0 0
4197 168 4 0.0000000000000000e+00 -7.6342360678015510e+01 -1.7888560432044127e+01 -1.1602700137782917e+02 0 0 0
4198 168 4 0.0000000000000000e+00 -8.1674287153600318e+01 -2.6884592192363453e+01 -1.1499198291670754e+02 0 0 0
1981 80 2 0.0000000000000000e+00 -5.9241235813477424e+01 -1.9808797590146277e+01 -1.0719720718057967e+02 0 0 0
1982 80 1 0.0000000000000000e+00 -5.6240753542177060e+01 -2.5812182762038745e+01 -1.1491036364410483e+02 0 0 0
1168 47 2 0.0000000000000000e+00 -2.3345549663518888e+01 -2.7270118047918405e+01 -1.1306243622119834e+02 0 0 0