LAMMPS data file via write_data, version 5 Jun 2019, timestep = 390000000

5000 atoms
4 atom types
5293 bonds
3 bond types
4600 angles
2 angle types

-2.5000000000000000e+02 2.5000000000000000e+02 xlo xhi
-2.5000000000000000e+02 2.5000000000000000e+02 ylo yhi
-2.5000000000000000e+02 2.5000000000000000e+02 zlo zhi

Masses

1 1000
2 1000
3 1000
4 1000

Pair Coeffs # lj/cut

1 0.18 10
2 0.18 10
3 0.18 10
4 0.18 10

Bond Coeffs # harmonic

1 3 10
2 3 10
3 3 11.22

Angle Coeffs # cosine

1 2
2 2

Atoms # full

4465 179 4 0.0000000000000000e+00 -4.2888107554811263e+01 1.1309143901920820e+00 -1.9292429658288862e+02 0 0 0
4464 179 4 0.0000000000000000e+00 -4.5237637961698724e+01 -2.0058709708833002e+00 -1.8383410018540189e+02 0 0 0
1454 59 2 0.0000000000000000e+00 -3.4303308077715080e+01 2.8726792842451014e+00 -1.8126533567668346e+02 0 0 0
1849 74 2 0.0000000000000000e+00 -5.2672879851883671e+01 -5.3739799058389707e+01 -1.6720751089787183e+02 0 0 0
61 3 2 0.0000000000000000e+00 -1.6311942651892032e+01 -5.1190471191920565e+01 -1.7127089408566835e+02 0 0 0
1850 74 1 0.0000000000000000e+00 -5.2975910910422236e+01 -4.6329936115441356e+01 -1.7414902875143397e+02 0 0 0
4776 192 3 0.0000000000000000e+00 -4.3147848351504578e+01 -4.4437150536018741e+01 -1.6924518335686156e+02 0 0 0
4777 192 4 0.0000000000000000e+00 -4.6929991742287598e+01 -3.5477759015600569e+01 -1.6997327953396123e+02 0 0 0
4778 192 4 0.0000000000000000e+00 -4.7151421720959121e+01 -2.5368521779633149e+01 -1.6994261658702621e+02 0 0 0
4779 192 4 0.0000000000000000e+00 -3.8144238628104745e+01 -2.1461482373097159e+01 -1.7236487128032599e+02 0 0 0
2247 90 2 0.0000000000000000e+00 -7.9931293955551368e+01 -7.8094509219701589e+00 -1.7107126727985496e+02 0 0 0
4780 192 4 0.0000000000000000e+00 -3.0862393254119677e+01 -1.8877887735686151e+01 -1.6667076521030523e+02 0 0 0
2246 90 2 0.0000000000000000e+00 -7.1916265188162669e+01 -2.0139955807953553e+00 -1.7091382098709755e+02 0 0 0
2245 90 2 0.0000000000000000e+00 -6.2128197863889170e+01 -1.7622453176361480e-01 -1.7163837375271299e+02 0 0 0
4463 179 3 0.0000000000000000e+00 -4.9309524297489141e+01 -5.9048339792725093e+00 -1.7607254737970425e+02 0 0 0
4462 179 4 0.0000000000000000e+00 -5.2810384442343320e+01 -6.0186857867126111e+00 -1.6633448153779051e+02 0 0 0
2244 90 1 0.0000000000000000e+00 -5.2298085982040114e+01 3.7683877618410389e+00 -1.7111376746992644e+02 0 0 0
1455 59 2 0.0000000000000000e+00 -2.6269409956955450e+01 3.9800752118533317e-01 -1.7516128723689386e+02 0 0 0
1456 59 2 0.0000000000000000e+00 -2.7681081423856945e+01 -7.2216581592476103e+00 -1.6856654986919415e+02 0 0 0
1848 74 2 0.0000000000000000e+00 -5.4028961860696491e+01 -6.0474658057718337e+01 -1.5936784852096250e+02 0 0 0
60 3 2 0.0000000000000000e+00 -2.0239748483347977e+01 -5.1708813330534561e+01 -1.6176079960560222e+02 0 0 0
59 3 2 0.0000000000000000e+00 -1.4114163193121939e+01 -5.2544500746585925e+01 -1.5415716674502139e+02 0 0 0
3060 123 4 0.0000000000000000e+00 -1.0605433340279541e+02 -1.4805376082676645e+01 -1.5243635836763664e+02 0 0 0
4461 179 4 0.0000000000000000e+00 -5.7856482493229890e+01 -1.2195631917527804e+01 -1.6061924028678155e+02 0 0 0
4781 192 4 0.0000000000000000e+00 -2.7933380330623891e+01 -1.4950441486355396e+01 -1.5770062090659349e+02 0 0 0
1457 59 1 0.0000000000000000e+00 -2.2143154105624880e+01 -7.8986893200761159e+00 -1.5957799349207960e+02 0 0 0
3058 123 4 0.0000000000000000e+00 -1.1167530720923351e+02 3.3156785214611304e+00 -1.5717813826219586e+02 0 0 0
3059 123 4 0.0000000000000000e+00 -1.0945173430468161e+02 -5.5803520935912259e+00 -1.5220917212506393e+02 0 0 0
2248 90 2 0.0000000000000000e+00 -7.8961194073202279e+01 -5.1562570134290855e+00 -1.6167104118101213e+02 0 0 0
4460 179 4 0.0000000000000000e+00 -5.3097683659000403e+01 -6.7883485234100567e+00 -1.5362474951632029e+02 0 0 0
3406 137 4 0.0000000000000000e+00 -4.6900661523980332e+01 2.1029020637207352e+00 -1.5507341611688636e+02 0 0 0
1847 74 2 0.0000000000000000e+00 -5.8031644044820148e+01 -6.2053632376889759e+01 -1.4944203032364800e+02 0 0 0
1845 74 2 0.0000000000000000e+00 -6.2252574759856437e+01 -6.1998072206096282e+01 -1.3951571720469420e+02 0 0 0
3526 142 3 0.0000000000000000e+00 -5.1147361088213209e+01 -6.9545792523818520e+01 -1.4365524609736337e+02 0 0 0
3269 131 3 0.0000000000000000e+00 -3.8708771029353969e+01 -6.2603819048355383e+01 -1.4680741038910759e+02 0 0 0
3270 131 4 0.0000000000000000e+00 -3.2987918110637651e+01 -6.6947039848808203e+01 -1.4017209390373586e+02 0 0 0
3271 131 4 0.0000000000000000e+00 -2.4017878542614376e+01 -7.0597560250572883e+01 -1.3886830756791468e+02 0 0 0
1846 74 2 0.0000000000000000e+00 -6.6081040455427114e+01 -5.6068177586174677e+01 -1.4688149725258148e+02 0 0 0
1826 74 1 0.0000000000000000e+00 -4.8307515208743759e+01 -5.6152946160938434e+01 -1.4901415715614900e+02 0 0 0
1827 74 2 0.0000000000000000e+00 -4.2806586263992592e+01 -4.8241795477545431e+01 -1.4649191973761384e+02 0 0 0
3268 131 4 0.0000000000000000e+00 -3.1832808389887354e+01 -5.5559649039140041e+01 -1.4541340899174082e+02 0 0 0
3267 131 4 0.0000000000000000e+00 -2.6564946352351367e+01 -4.8809601355939733e+01 -1.3991016276507969e+02 0 0 0
1828 74 2 0.0000000000000000e+00 -4.1818095736172360e+01 -4.0234181134110401e+01 -1.4069017179110060e+02 0 0 0
3266 131 4 0.0000000000000000e+00 -1.7097477690715948e+01 -4.5507833565734956e+01 -1.3893940853235964e+02 0 0 0
3062 123 4 0.0000000000000000e+00 -1.0941340437315026e+02 -3.0270835447730942e+01 -1.3933720056401765e+02 0 0 0
3061 123 4 0.0000000000000000e+00 -1.0821672720937680e+02 -2.3583884807356355e+01 -1.4646219082812769e+02 0 0 0
2379 96 2 0.0000000000000000e+00 -8.1142406459469228e+01 -2.4203454802964671e+01 -1.4137224808985900e+02 0 0 0
1829 74 2 0.0000000000000000e+00 -4.4823337446367617e+01 -3.0608295558319874e+01 -1.4068521868988250e+02 0 0 0
274 11 2 0.0000000000000000e+00 -2.3816529379075352e+01 -2.7109858884373487e+01 -1.4009751586721285e+02 0 0 0
2378 96 2 0.0000000000000000e+00 -8.1711951831616744e+01 -1.5670728100498280e+01 -1.4705865450084681e+02 0 0 0
2377 96 2 0.0000000000000000e+00 -7.5266785655892221e+01 -1.3340497238725140e+01 -1.3932652771811604e+02 0 0 0
3176 128 3 0.0000000000000000e+00 -3.3349025679775146e+01 -2.0388701603970119e+01 -1.3875873146260486e+02 0 0 0
4782 192 3 0.0000000000000000e+00 -2.5506021798431995e+01 -9.7263221527467127e+00 -1.4929778911873771e+02 0 0 0
275 11 1 0.0000000000000000e+00 -2.5914111486869228e+01 -1.9668914275764600e+01 -1.4697562185036477e+02 0 0 0
3412 137 4 0.0000000000000000e+00 -9.7489915317088077e+01 2.9049005570415942e+00 -1.4582368123736893e+02 0 0 0
3413 137 3 0.0000000000000000e+00 -1.0688793533043288e+02 5.0866265136635134e+00 -1.4373396263128103e+02 0 0 0
2249 90 2 0.0000000000000000e+00 -7.8574840800102521e+01 -3.7135143289018333e+00 -1.5139305192969326e+02 0 0 0
2250 90 1 0.0000000000000000e+00 -8.0199510685752458e+01 -2.4048042212676757e+00 -1.4153661134218791e+02 0 0 0
4459 179 4 0.0000000000000000e+00 -4.7092938529304625e+01 -5.1477871939350450e+00 -1.4538410643995405e+02 0 0 0
4783 192 4 0.0000000000000000e+00 -3.0866710869405861e+01 -7.2688005727082299e+00 -1.4076644566469110e+02 0 0 0
4153 167 4 0.0000000000000000e+00 -1.2700702109415327e+02 -1.1730880571682938e+02 -1.2830983132959730e+02 0 0 0
4154 167 4 0.0000000000000000e+00 -1.2378663541124679e+02 -1.0844062494572191e+02 -1.3189029423187651e+02 0 0 0
4155 167 4 0.0000000000000000e+00 -1.1769102186979296e+02 -1.0018362106657857e+02 -1.3153393891275701e+02 0 0 0
4156 167 4 0.0000000000000000e+00 -1.0810035614626995e+02 -9.7405857140486873e+01 -1.2733648993804078e+02 0 0 0
3527 142 4 0.0000000000000000e+00 -4.3108379015655110e+01 -7.0832682871095386e+01 -1.3743674334253595e+02 0 0 0
1844 74 1 0.0000000000000000e+00 -5.4238817419267811e+01 -6.5211699048084427e+01 -1.3369944386229045e+02 0 0 0
3528 142 4 0.0000000000000000e+00 -3.9262226343117568e+01 -7.3909799462072414e+01 -1.2873538688621440e+02 0 0 0
3272 131 4 0.0000000000000000e+00 -1.7453983214443230e+01 -6.5792750626169436e+01 -1.3333584362530618e+02 0 0 0
3273 131 4 0.0000000000000000e+00 -1.5891696614825763e+01 -6.7959274820599816e+01 -1.2404137432604092e+02 0 0 0
1843 74 2 0.0000000000000000e+00 -5.1771274923963666e+01 -5.9498312588010478e+01 -1.2611972770812324e+02 0 0 0
3064 123 4 0.0000000000000000e+00 -1.2283177669164466e+02 -3.7852890950004031e+01 -1.2784357567406543e+02 0 0 0
273 11 2 0.0000000000000000e+00 -2.3424187859283627e+01 -3.6906973571090106e+01 -1.3667200834104830e+02 0 0 0
272 11 2 0.0000000000000000e+00 -2.2041228227233024e+01 -4.4816598377015730e+01 -1.3064323601282121e+02 0 0 0
3063 123 3 0.0000000000000000e+00 -1.1735771434166449e+02 -3.2438947883526730e+01 -1.3423840815423935e+02 0 0 0
576 24 1 0.0000000000000000e+00 -1.0886897472033223e+02 -3.2123302254071980e+01 -1.2726941112142877e+02 0 0 0
2380 96 2 0.0000000000000000e+00 -7.7052254397362049e+01 -2.7339334278285794e+01 -1.3189301879466234e+02 0 0 0
2381 96 2 0.0000000000000000e+00 -7.0239252383349580e+01 -2.8219014499279147e+01 -1.2470772907255829e+02 0 0 0
1831 74 2 0.0000000000000000e+00 -5.9495661488333809e+01 -2.1953959170739143e+01 -1.3012276037183332e+02 0 0 0
1830 74 2 0.0000000000000000e+00 -5.3189388326358134e+01 -2.7349046526842951e+01 -1.3539619030775330e+02 0 0 0
2798 112 4 0.0000000000000000e+00 -4.3870323254921686e+01 -3.1842482077834227e+01 -1.2715453946113578e+02 0 0 0
2376 96 1 0.0000000000000000e+00 -7.5797940708598389e+01 -8.9840595673040546e+00 -1.3061896538369328e+02 0 0 0
1832 74 1 0.0000000000000000e+00 -6.8650978312853098e+01 -1.8245966250837494e+01 -1.3303711315229648e+02 0 0 0
4457 179 3 0.0000000000000000e+00 -6.1684194487749764e+01 -9.7429124067625636e+00 -1.3374685829239746e+02 0 0 0
4458 179 4 0.0000000000000000e+00 -5.2232333779383062e+01 -8.9030810041148207e+00 -1.3746195368957564e+02 0 0 0
3178 128 4 0.0000000000000000e+00 -5.0454230130905792e+01 -1.8470369890755894e+01 -1.2928782992869640e+02 0 0 0
3177 128 4 0.0000000000000000e+00 -4.2208335181713480e+01 -2.0718252913824859e+01 -1.3445862569053909e+02 0 0 0
453 19 2 0.0000000000000000e+00 -1.7528323885999516e+01 -2.0044694919244893e+01 -1.2490900233203102e+02 0 0 0
454 19 2 0.0000000000000000e+00 -1.7184720134563825e+01 -1.4044169718484245e+01 -1.3342166037191834e+02 0 0 0
2015 81 2 0.0000000000000000e+00 -1.2716874838722271e+02 -4.7599719215023519e+00 -1.2455613838933485e+02 0 0 0
2016 81 2 0.0000000000000000e+00 -1.2463560298398748e+02 5.0418778329037375e+00 -1.2632819187156235e+02 0 0 0
3152 127 4 0.0000000000000000e+00 -8.7597907280043245e+01 -2.4933085618798287e+00 -1.2577589143559322e+02 0 0 0
4456 179 4 0.0000000000000000e+00 -6.7863762925623689e+01 -5.6373255383400362e+00 -1.2698422824357124e+02 0 0 0
4784 192 4 0.0000000000000000e+00 -3.4475662787945993e+01 1.3576998830866720e+00 -1.3724344607914182e+02 0 0 0
412 17 2 0.0000000000000000e+00 -1.4003924459096087e+01 8.6481572791680184e-01 -1.2562336696405811e+02 0 0 0
4151 167 3 0.0000000000000000e+00 -1.3612067284329871e+02 -1.3083905958706168e+02 -1.1984594944872616e+02 0 0 0
251 11 1 0.0000000000000000e+00 -1.4094404567586156e+02 -1.2262106778590831e+02 -1.1330020168388553e+02 0 0 0
4152 167 4 0.0000000000000000e+00 -1.2799532863182914e+02 -1.2641748866194558e+02 -1.2326121965506407e+02 0 0 0
2395 96 2 0.0000000000000000e+00 -1.2591641095559203e+02 -1.0642947683738083e+02 -1.1591068977444090e+02 0 0 0
2398 96 2 0.0000000000000000e+00 -1.1290364610364240e+02 -1.0334861990869342e+02 -1.1115317966841558e+02 0 0 0
4158 167 4 0.0000000000000000e+00 -9.4356731394860120e+01 -1.0457194552522593e+02 -1.1318903032146675e+02 0 0 0
2394 96 1 0.0000000000000000e+00 -1.3073769482879482e+02 -1.0068738543404471e+02 -1.0994062459973503e+02 0 0 0
4157 167 3 0.0000000000000000e+00 -1.0140182441531775e+02 -1.0071100473013512e+02 -1.1991412074943241e+02 0 0 0
2400 96 1 0.0000000000000000e+00 -9.8647945366046031e+01 -9.5792102535251146e+01 -1.0981249361723657e+02 0 0 0
3529 142 4 0.0000000000000000e+00 -3.9968915668402481e+01 -7.7495141701275031e+01 -1.1927742453286670e+02 0 0 0
3530 142 4 0.0000000000000000e+00 -3.6893449510514216e+01 -7.8135081262384091e+01 -1.0973227257845701e+02 0 0 0
2385 96 2 0.0000000000000000e+00 -8.0375627985949336e+01 -4.8340147683524172e+01 -1.1547804941330733e+02 0 0 0
1842 74 2 0.0000000000000000e+00 -5.2869990952698025e+01 -5.4500344994169176e+01 -1.1851611717204474e+02 0 0 0
3066 123 4 0.0000000000000000e+00 -1.2651659245218947e+02 -4.7220405610299572e+01 -1.1142645763145904e+02 0 0 0
3065 123 4 0.0000000000000000e+00 -1.2346066254805204e+02 -3.9605548046713324e+01 -1.1769912317242110e+02 0 0 0
577 24 2 0.0000000000000000e+00 -1.1001859036625979e+02 -4.0027324322528898e+01 -1.2186215186143218e+02 0 0 0
578 24 2 0.0000000000000000e+00 -1.0800016616436372e+02 -4.1411411855168659e+01 -1.1220716197353708e+02 0 0 0
2384 96 2 0.0000000000000000e+00 -7.9303175213464698e+01 -4.1248948671965060e+01 -1.2237684075261510e+02 0 0 0
2383 96 2 0.0000000000000000e+00 -7.2170101281530265e+01 -3.5447167767967180e+01 -1.1865950243689942e+02 0 0 0
1840 74 2 0.0000000000000000e+00 -5.9767675063627344e+01 -3.8282256774044590e+01 -1.1096115067755468e+02 0 0 0
1841 74 2 0.0000000000000000e+00 -5.4424201270567266e+01 -4.4827543618476533e+01 -1.1668611287595813e+02 0 0 0
270 11 2 0.0000000000000000e+00 -1.7877238655802241e+01 -4.6748601206443880e+01 -1.1229187946437007e+02 0 0 0
271 11 2 0.0000000000000000e+00 -2.2507356855622074e+01 -4.6333936660437061e+01 -1.2094690158479806e+02 0 0 0
2156 87 2 0.0000000000000000e+00 -2.2291791553118735e+01 -3.6511123532516663e+01 -1.1190192102341479e+02 0 0 0
2382 96 1 0.0000000000000000e+00 -7.3108625624542441e+01 -2.6297215289099654e+01 -1.1567563444319937e+02 0 0 0
2800 112 3 0.0000000000000000e+00 -6.1969134696984213e+01 -2.6832612553075911e+01 -1.1811622352621742e+02 0 0 0
2799 112 4 0.0000000000000000e+00 -5.3370563231577101e+01 -2.9200892533211665e+01 -1.2322709159615881e+02 0 0 0
2797 112 4 0.0000000000000000e+00 -3.4861241759058828e+01 -3.3064595134202527e+01 -1.2310947723336484e+02 0 0 0
2796 112 4 0.0000000000000000e+00 -2.5549686289259999e+01 -2.8165255092936068e+01 -1.2244369314761538e+02 0 0 0
2795 112 4 0.0000000000000000e+00 -2.0982317663325357e+01 -2.3159393146211048e+01 -1.1505888779399135e+02 0 0 0
3156 127 4 0.0000000000000000e+00 -1.1549563014232110e+02 -8.5493539399227707e+00 -1.1167054867298802e+02 0 0 0
3157 127 3 0.0000000000000000e+00 -1.0845928026715802e+02 -1.6549540149317188e+01 -1.1170867434382950e+02 0 0 0
3151 127 3 0.0000000000000000e+00 -8.1405709849275780e+01 -9.6261068229540871e+00 -1.2139510900605362e+02 0 0 0
1833 74 2 0.0000000000000000e+00 -7.2286448755482212e+01 -1.8869918704330740e+01 -1.2367382759933339e+02 0 0 0
1834 74 2 0.0000000000000000e+00 -6.7464643570378357e+01 -1.4667021275472186e+01 -1.1601925346293542e+02 0 0 0
1835 74 2 0.0000000000000000e+00 -5.8574972642780892e+01 -1.4596249102909104e+01 -1.1094158273728146e+02 0 0 0
3179 128 4 0.0000000000000000e+00 -5.0969328494007748e+01 -1.3007740338852109e+01 -1.2021608180731495e+02 0 0 0
2014 81 2 0.0000000000000000e+00 -1.3572997951519454e+02 -2.0907385405706713e+00 -1.2013097063303424e+02 0 0 0
3154 127 4 0.0000000000000000e+00 -1.0218229484762200e+02 -6.5914831043321493e+00 -1.1398974110480745e+02 0 0 0
3153 127 4 0.0000000000000000e+00 -9.5677799584473632e+01 -6.8082300308911670e+00 -1.2148607501228813e+02 0 0 0
4455 179 4 0.0000000000000000e+00 -6.9770822178462225e+01 1.4114956127096090e+00 -1.1984567204962821e+02 0 0 0
4454 179 4 0.0000000000000000e+00 -7.8515367001234310e+01 2.7816134414535991e+00 -1.1540038631561066e+02 0 0 0
3180 128 4 0.0000000000000000e+00 -5.1243215449675951e+01 -3.2245203883803604e+00 -1.1659844201976976e+02 0 0 0
2160 87 2 0.0000000000000000e+00 -4.1659486676459636e+01 -7.6445446767663281e+00 -1.1067975853561327e+02 0 0 0
3181 128 4 0.0000000000000000e+00 -5.2107775343281517e+01 5.4734215653989446e+00 -1.2076164745271370e+02 0 0 0
1990 80 2 0.0000000000000000e+00 -1.6201683782772884e+02 -1.1204373915993958e+02 -9.8744180566366794e+01 0 0 0
1989 80 2 0.0000000000000000e+00 -1.5183265014408644e+02 -1.1250182276302534e+02 -9.8293207642146882e+01 0 0 0
252 11 2 0.0000000000000000e+00 -1.3878848043089781e+02 -1.1525736317776337e+02 -1.0652547327919365e+02 0 0 0
253 11 2 0.0000000000000000e+00 -1.3418641665649216e+02 -1.0707502822699604e+02 -1.0341250194764173e+02 0 0 0
2396 96 2 0.0000000000000000e+00 -1.2100861590453268e+02 -1.1063178901350763e+02 -1.0810122715760312e+02 0 0 0
2397 96 2 0.0000000000000000e+00 -1.1691915863030268e+02 -1.0344139962252534e+02 -1.0228251549000396e+02 0 0 0
2399 96 2 0.0000000000000000e+00 -1.0302328835354142e+02 -1.0406359451606778e+02 -1.0910502778418775e+02 0 0 0
4159 167 4 0.0000000000000000e+00 -9.1516635024560856e+01 -1.0759748389433216e+02 -1.0456901393819020e+02 0 0 0
4160 167 4 0.0000000000000000e+00 -9.2925451558886110e+01 -1.1222392125547277e+02 -9.6055532742296322e+01 0 0 0
4376 176 3 0.0000000000000000e+00 -1.4182616617404400e+02 -1.0080310723293071e+02 -1.0682322153923599e+02 0 0 0
254 11 2 0.0000000000000000e+00 -1.2875722117588421e+02 -9.9712750011933849e+01 -9.8180551259636530e+01 0 0 0
4377 176 4 0.0000000000000000e+00 -1.3555269876735858e+02 -9.2801091462232804e+01 -1.0499169170806641e+02 0 0 0
2393 96 2 0.0000000000000000e+00 -1.2327576487085847e+02 -9.4935742571565868e+01 -1.0676897993990279e+02 0 0 0
4378 176 4 0.0000000000000000e+00 -1.2840978247442075e+02 -8.8316866504942723e+01 -9.9638666723658091e+01 0 0 0
2392 96 2 0.0000000000000000e+00 -1.1753210581815264e+02 -8.6653794906221151e+01 -1.0705317323958594e+02 0 0 0
2391 96 2 0.0000000000000000e+00 -1.0767685104048472e+02 -8.6339627806513079e+01 -1.0535698309086779e+02 0 0 0
2390 96 2 0.0000000000000000e+00 -9.8004583200735880e+01 -8.2564454521110065e+01 -1.0485595601745530e+02 0 0 0
4949 198 4 0.0000000000000000e+00 -7.1380821804029466e+01 -7.6402069694673088e+01 -9.8452992345597551e+01 0 0 0
3531 142 4 0.0000000000000000e+00 -3.0072519911424752e+01 -7.6041328647128708e+01 -1.0301772733979726e+02 0 0 0
3532 142 3 0.0000000000000000e+00 -2.1341270352235156e+01 -7.8110587760242638e+01 -9.9333446070772609e+01 0 0 0
3171 127 4 0.0000000000000000e+00 -1.3411600055359358e+02 -6.7789654975602375e+01 -1.0013510511020789e+02 0 0 0
3172 127 4 0.0000000000000000e+00 -1.2497798431261698e+02 -6.7528408222327300e+01 -1.0323248595843465e+02 0 0 0
3173 127 4 0.0000000000000000e+00 -1.1523922282387463e+02 -6.5067753824273765e+01 -1.0303365527922803e+02 0 0 0
2389 96 2 0.0000000000000000e+00 -9.9350018781840973e+01 -7.3051085249960209e+01 -1.0308633443917547e+02 0 0 0
3174 127 4 0.0000000000000000e+00 -1.0724170891802387e+02 -6.2774530628138180e+01 -9.7627480364460340e+01 0 0 0
2388 96 1 0.0000000000000000e+00 -9.2731244592130636e+01 -6.7213549864409998e+01 -9.8417465843463376e+01 0 0 0
2387 96 2 0.0000000000000000e+00 -8.4629313167461021e+01 -6.1723551394605273e+01 -1.0193494757342452e+02 0 0 0
4950 198 3 0.0000000000000000e+00 -7.3399875548243713e+01 -6.8609174184894584e+01 -1.0407388996700190e+02 0 0 0
266 11 2 0.0000000000000000e+00 -3.8133322909432906e+01 -7.1499237315258227e+01 -9.7857867581177459e+01 0 0 0
267 11 2 0.0000000000000000e+00 -3.5448115052276393e+01 -6.2214657556638876e+01 -1.0120617232343041e+02 0 0 0
2386 96 2 0.0000000000000000e+00 -8.2639789239550083e+01 -5.6041233677304305e+01 -1.0945001561041595e+02 0 0 0
1165 47 2 0.0000000000000000e+00 -5.8579843762368988e+01 -5.5180848662506165e+01 -9.9195238080116496e+01 0 0 0
1166 47 2 0.0000000000000000e+00 -6.5834864903896658e+01 -5.2841649363633849e+01 -1.0568973406160092e+02 0 0 0
1164 47 2 0.0000000000000000e+00 -4.9486172254650441e+01 -5.2536751066705079e+01 -9.7493707451030303e+01 0 0 0
268 11 2 0.0000000000000000e+00 -2.6615366416945086e+01 -6.1016006715514933e+01 -1.0570525826546940e+02 0 0 0
269 11 1 0.0000000000000000e+00 -1.9699178160203360e+01 -5.3783903789865995e+01 -1.0576486341022647e+02 0 0 0
3067 123 4 0.0000000000000000e+00 -1.2815291013566511e+02 -4.3856692590910598e+01 -1.0255748030986852e+02 0 0 0
3068 123 4 0.0000000000000000e+00 -1.2502498469203569e+02 -3.6793364095536582e+01 -9.6027886460477703e+01 0 0 0
580 24 2 0.0000000000000000e+00 -1.1637706709050235e+02 -4.6756613702757356e+01 -9.6449944190950831e+01 0 0 0
579 24 2 0.0000000000000000e+00 -1.1026513307747621e+02 -4.6548125449186081e+01 -1.0369055552844867e+02 0 0 0
1168 47 2 0.0000000000000000e+00 -7.5166707101106184e+01 -3.7520383806231536e+01 -1.0119595805599600e+02 0 0 0
1167 47 2 0.0000000000000000e+00 -6.9668966878082216e+01 -4.4178271524869288e+01 -1.0663767885104770e+02 0 0 0
1839 74 2 0.0000000000000000e+00 -5.6678330050023867e+01 -3.4881418208128807e+01 -1.0169552038436834e+02 0 0 0
3087 124 4 0.0000000000000000e+00 -3.6267554106295485e+01 -4.5447253541512858e+01 -1.0638490309018741e+02 0 0 0
3086 124 4 0.0000000000000000e+00 -4.1202761442218701e+01 -4.4968635745394984e+01 -9.7707089116440500e+01 0 0 0
3088 124 3 0.0000000000000000e+00 -2.7823290611476644e+01 -4.1193628142974276e+01 -1.0270915961466262e+02 0 0 0
3089 124 4 0.0000000000000000e+00 -1.8914966717028122e+01 -4.1503171674737779e+01 -9.6477335365485132e+01 0 0 0
3158 127 4 0.0000000000000000e+00 -1.0604731324002817e+02 -2.5012283680950699e+01 -1.0698347523283462e+02 0 0 0
3159 127 4 0.0000000000000000e+00 -1.0040205384890743e+02 -3.1150135092626456e+01 -1.0067971292679204e+02 0 0 0
1169 47 1 0.0000000000000000e+00 -8.1416896747123204e+01 -3.0220651236760879e+01 -9.7243754052084384e+01 0 0 0
2157 87 1 0.0000000000000000e+00 -3.1193688273317729e+01 -3.2851750703922022e+01 -1.0946852740188343e+02 0 0 0
2158 87 2 0.0000000000000000e+00 -3.4934396045819838e+01 -2.3552946294442613e+01 -1.0911392718733840e+02 0 0 0
2794 112 3 0.0000000000000000e+00 -1.5799009746535729e+01 -2.6289000852361987e+01 -1.0761858687453866e+02 0 0 0
2155 87 2 0.0000000000000000e+00 -2.4790668069729339e+01 -2.7401347745782545e+01 -1.0671758113984976e+02 0 0 0
2154 87 2 0.0000000000000000e+00 -2.3591542497393633e+01 -2.4726743653744371e+01 -9.6589827322719643e+01 0 0 0
2169 87 1 0.0000000000000000e+00 -1.0126778860368429e+02 -1.7796400224566046e+01 -1.0314851275851260e+02 0 0 0
2170 87 2 0.0000000000000000e+00 -1.1055869821677283e+02 -1.4533233126119036e+01 -1.0047077726978161e+02 0 0 0
2168 87 2 0.0000000000000000e+00 -9.1085223189350117e+01 -1.9239592016233303e+01 -1.0488239942399538e+02 0 0 0
2167 87 2 0.0000000000000000e+00 -8.1997068314830372e+01 -1.5772082954594357e+01 -1.0295976021022597e+02 0 0 0
2166 87 2 0.0000000000000000e+00 -7.4499632348903560e+01 -9.8828678857170509e+00 -9.9153162976638114e+01 0 0 0
1836 74 2 0.0000000000000000e+00 -5.2120505692114911e+01 -1.5314573294529430e+01 -1.0239347798855860e+02 0 0 0
2159 87 2 0.0000000000000000e+00 -3.6967396266954431e+01 -1.4177417653474839e+01 -1.0482439658242079e+02 0 0 0
2153 87 2 0.0000000000000000e+00 -2.3282304148882936e+01 -1.6141074651607124e+01 -1.0135838486935849e+02 0 0 0
2877 116 4 0.0000000000000000e+00 -1.5655219614460449e+02 2.0410002909395648e+00 -9.6892914403362298e+01 0 0 0
2709 109 4 0.0000000000000000e+00 -1.4170611603235037e+02 -1.9870164058758129e+00 -1.0005944055209045e+02 0 0 0
3155 127 4 0.0000000000000000e+00 -1.0788713426391936e+02 -5.6628680423568829e+00 -1.0553521181208889e+02 0 0 0
2069 83 1 0.0000000000000000e+00 -1.0264648558366204e+02 -7.7624253778701091e-01 -9.6187627865635108e+01 0 0 0
4452 179 4 0.0000000000000000e+00 -8.9368873910879358e+01 -6.6511265276918401e+00 -1.0321739446171134e+02 0 0 0
4453 179 4 0.0000000000000000e+00 -8.2041661788180704e+01 -4.5418341746060298e+00 -1.0923911079229413e+02 0 0 0
2165 87 2 0.0000000000000000e+00 -6.6539782455897523e+01 -3.2563858685187137e+00 -9.8323222260231319e+01 0 0 0
2161 87 2 0.0000000000000000e+00 -4.7717174472633182e+01 -2.8435409234272208e-01 -1.0700153387301769e+02 0 0 0
4200 168 3 0.0000000000000000e+00 -1.3452563111332327e+02 -1.1931167643864174e+02 -8.9658309910456239e+01 0 0 0
1991 80 2 0.0000000000000000e+00 -1.6607945814203470e+02 -1.0605427156742469e+02 -9.1439188918075970e+01 0 0 0
1988 80 1 0.0000000000000000e+00 -1.4170530538650999e+02 -1.1323279882299225e+02 -9.5518575663770108e+01 0 0 0
1987 80 2 0.0000000000000000e+00 -1.3299509675150762e+02 -1.0769596616814717e+02 -9.2838759421377318e+01 0 0 0
1986 80 2 0.0000000000000000e+00 -1.2884661164364883e+02 -1.0193290738795052e+02 -8.5384367328074717e+01 0 0 0
4161 167 4 0.0000000000000000e+00 -9.5128450878852405e+01 -1.1314936179441158e+02 -8.6537580781095883e+01 0 0 0
1992 80 2 0.0000000000000000e+00 -1.6620631427189915e+02 -1.0179746147979532e+02 -8.2123291189105913e+01 0 0 0
256 11 2 0.0000000000000000e+00 -1.1137481744652202e+02 -1.0092318731390723e+02 -9.1018058148448844e+01 0 0 0
255 11 2 0.0000000000000000e+00 -1.1987596806876762e+02 -9.7630162395105430e+01 -9.5187949930213563e+01 0 0 0
257 11 1 0.0000000000000000e+00 -1.0525077836652981e+02 -1.0119266066779245e+02 -8.3275365403375091e+01 0 0 0
4947 198 4 0.0000000000000000e+00 -7.6884345818755207e+01 -8.9134739294583454e+01 -8.3881883551507002e+01 0 0 0
1949 78 2 0.0000000000000000e+00 -1.6486305350864047e+01 -1.0192033801515325e+02 -8.4719576948311342e+01 0 0 0
4379 176 4 0.0000000000000000e+00 -1.2687126034903757e+02 -8.4485487378374273e+01 -9.1041233170299265e+01 0 0 0
4380 176 4 0.0000000000000000e+00 -1.2218526229283472e+02 -8.0612274833921973e+01 -8.3191107405096062e+01 0 0 0
4948 198 4 0.0000000000000000e+00 -7.2362677410264141e+01 -8.4154902956347982e+01 -9.2176187355159243e+01 0 0 0
261 11 2 0.0000000000000000e+00 -8.0125266235927782e+01 -7.7296153278391472e+01 -8.3921468259836317e+01 0 0 0
263 11 1 0.0000000000000000e+00 -6.3630343719992155e+01 -7.5047489576769181e+01 -8.9572109721288243e+01 0 0 0
264 11 2 0.0000000000000000e+00 -5.4136472136910811e+01 -7.6776111665185724e+01 -8.9463959331186487e+01 0 0 0
265 11 2 0.0000000000000000e+00 -4.4863478444756247e+01 -7.5900835308101648e+01 -9.1954864620839786e+01 0 0 0
2358 95 2 0.0000000000000000e+00 -2.1781790736736113e+01 -7.9404514040142288e+01 -8.8079548890745187e+01 0 0 0
3170 127 4 0.0000000000000000e+00 -1.4038403495568917e+02 -6.4280434625678041e+01 -9.4259805944586304e+01 0 0 0
3074 123 4 0.0000000000000000e+00 -1.2665081629458415e+02 -7.2004829520983350e+01 -8.2162658422427825e+01 0 0 0
590 24 2 0.0000000000000000e+00 -1.2078075395690371e+02 -6.3442557238509366e+01 -9.4614787358106938e+01 0 0 0
591 24 2 0.0000000000000000e+00 -1.1323148230278981e+02 -6.7858578547493650e+01 -8.9563744893381809e+01 0 0 0
3175 127 3 0.0000000000000000e+00 -1.0114398844070550e+02 -6.7191945783872811e+01 -9.1344609738405651e+01 0 0 0
262 11 2 0.0000000000000000e+00 -7.2307680676812708e+01 -7.1641658755078495e+01 -8.6330985067500961e+01 0 0 0
3080 124 4 0.0000000000000000e+00 -7.9655558958396853e+01 -6.3329206704206292e+01 -8.4441106995613168e+01 0 0 0
3082 124 3 0.0000000000000000e+00 -6.5840177798935528e+01 -6.4595813290123147e+01 -9.3828869950764329e+01 0 0 0
2355 95 2 0.0000000000000000e+00 -4.3075846943145891e+01 -7.0434048865579811e+01 -8.3734868892852447e+01 0 0 0
2356 95 2 0.0000000000000000e+00 -3.5693825540173087e+01 -6.6908343512097304e+01 -8.9169258749470202e+01 0 0 0
2357 95 1 0.0000000000000000e+00 -2.9070573891594726e+01 -7.3646014138170216e+01 -9.2405177872915417e+01 0 0 0
587 24 2 0.0000000000000000e+00 -1.4653882254471003e+02 -4.8452271994881080e+01 -9.4253849370947464e+01 0 0 0
3169 127 3 0.0000000000000000e+00 -1.4341478373550498e+02 -6.1335988395704867e+01 -8.5246670761189009e+01 0 0 0
588 24 1 0.0000000000000000e+00 -1.3776383645525414e+02 -5.3925826889776921e+01 -9.1838146466523909e+01 0 0 0
589 24 2 0.0000000000000000e+00 -1.3047637319719564e+02 -6.0775485743456471e+01 -9.4143373832799341e+01 0 0 0
3081 124 4 0.0000000000000000e+00 -7.5512655863016491e+01 -6.0954219532828077e+01 -9.3029000625427472e+01 0 0 0
3083 124 4 0.0000000000000000e+00 -5.9910894627356043e+01 -6.1455024511471073e+01 -8.6241315048093384e+01 0 0 0
1163 47 1 0.0000000000000000e+00 -4.5274427674494099e+01 -5.6229719850315199e+01 -8.8548378427654612e+01 0 0 0
3084 124 4 0.0000000000000000e+00 -5.5281325700249326e+01 -5.2215812820733994e+01 -8.7651643889873355e+01 0 0 0
4394 176 3 0.0000000000000000e+00 -3.4428443962613663e+01 -5.3174599123203372e+01 -8.9703947412308750e+01 0 0 0
4395 176 4 0.0000000000000000e+00 -2.6621470386305770e+01 -5.9318575959694755e+01 -9.2023995423134423e+01 0 0 0
4396 176 4 0.0000000000000000e+00 -1.7817648825145689e+01 -5.4003618387594067e+01 -9.3877733041184129e+01 0 0 0
586 24 2 0.0000000000000000e+00 -1.4649276794996413e+02 -3.8251099689593865e+01 -9.4738897928944169e+01 0 0 0
581 24 2 0.0000000000000000e+00 -1.2463249514612740e+02 -4.6186190784443852e+01 -9.0447832328464742e+01 0 0 0
3070 123 4 0.0000000000000000e+00 -1.1259565238435303e+02 -4.2791833723717048e+01 -8.6070189264398067e+01 0 0 0
3069 123 3 0.0000000000000000e+00 -1.1855626291172851e+02 -3.4728066482884827e+01 -8.8919295569302903e+01 0 0 0
2725 109 3 0.0000000000000000e+00 -8.5267670626300514e+01 -3.5336412762123039e+01 -8.8099241069162687e+01 0 0 0
2724 109 4 0.0000000000000000e+00 -9.3171019372727727e+01 -3.9196671179615329e+01 -8.3667362850625906e+01 0 0 0
3299 132 4 0.0000000000000000e+00 -5.8703579030053334e+01 -4.1099375673505882e+01 -8.9811985060444712e+01 0 0 0
3085 124 4 0.0000000000000000e+00 -4.8339684940900426e+01 -4.5254832283489613e+01 -9.0773205054405395e+01 0 0 0
3298 132 4 0.0000000000000000e+00 -5.3683330767108217e+01 -4.5493451336643801e+01 -8.1869069427451578e+01 0 0 0
4393 176 4 0.0000000000000000e+00 -3.9576073898387072e+01 -4.5809403532360328e+01 -8.5508772796542317e+01 0 0 0
4566 183 4 0.0000000000000000e+00 -2.4724258776240067e+01 -4.4636612539583631e+01 -8.1953370712548704e+01 0 0 0
585 24 2 0.0000000000000000e+00 -1.4364165118151553e+02 -2.9528430965830477e+01 -9.0660209300374703e+01 0 0 0
584 24 2 0.0000000000000000e+00 -1.3480889326511800e+02 -2.5631625513896186e+01 -8.6985500085239664e+01 0 0 0