LAMMPS data file via write_data, version 5 Jun 2019, timestep = 330000000

5000 atoms
4 atom types
5293 bonds
3 bond types
4600 angles
2 angle types

-2.5000000000000000e+02 2.5000000000000000e+02 xlo xhi
-2.5000000000000000e+02 2.5000000000000000e+02 ylo yhi
-2.5000000000000000e+02 2.5000000000000000e+02 zlo zhi

Masses

1 1000
2 1000
3 1000
4 1000

Pair Coeffs # lj/cut

1 0.18 10
2 0.18 10
3 0.18 10
4 0.18 10

Bond Coeffs # harmonic

1 3 10
2 3 10
3 3 11.22

Angle Coeffs # cosine

1 2
2 2

Atoms # full

4466 179 4 0.0000000000000000e+00 -4.3568541210043236e+01 -8.5910837492727659e+00 -1.9637520377764170e+02 0 0 0
4464 179 4 0.0000000000000000e+00 -4.9576555735027178e+01 -2.0276805301222694e+01 -1.8174478159505384e+02 0 0 0
4465 179 4 0.0000000000000000e+00 -4.6386420125121120e+01 -1.3349733694709709e+01 -1.8845630746588222e+02 0 0 0
1454 59 2 0.0000000000000000e+00 -3.2183198820520779e+01 -2.1646913829897688e+01 -1.8230043937219830e+02 0 0 0
3058 123 4 0.0000000000000000e+00 -6.0681164631394843e+01 -1.0378611769344976e+00 -1.8746449816600500e+02 0 0 0
3059 123 4 0.0000000000000000e+00 -6.0116163921629237e+01 -1.0108312767653658e+01 -1.8299816198639843e+02 0 0 0
1451 59 1 0.0000000000000000e+00 -4.9270951315172873e+01 -1.7911729851437788e+00 -1.8065794785658764e+02 0 0 0
4467 179 4 0.0000000000000000e+00 -4.4521025434137378e+01 7.4001477213975805e-02 -1.9185498326112668e+02 0 0 0
1452 59 2 0.0000000000000000e+00 -3.9799880914543337e+01 -5.0832284542608797e+00 -1.8290085348302767e+02 0 0 0
1453 59 2 0.0000000000000000e+00 -3.3994592403116521e+01 -1.2066630128714843e+01 -1.8574714842133895e+02 0 0 0
3057 123 3 0.0000000000000000e+00 -6.3520031012289195e+01 8.8912035348834699e+00 -1.8793868933085952e+02 0 0 0
3056 123 4 0.0000000000000000e+00 -7.1005624828341368e+01 1.4732866920248007e+01 -1.8704975177571009e+02 0 0 0
4468 179 4 0.0000000000000000e+00 -3.9169057472603228e+01 5.6551001161828456e+00 -1.8556444518020493e+02 0 0 0
1849 74 2 0.0000000000000000e+00 -5.2330061726913456e+01 -9.0180625676662771e+01 -1.6750430588736771e+02 0 0 0
1850 74 1 0.0000000000000000e+00 -4.6212346086993342e+01 -9.6586800205928711e+01 -1.7133817528793750e+02 0 0 0
4776 192 3 0.0000000000000000e+00 -4.2539931644912294e+01 -8.8461702854703745e+01 -1.6493368703395791e+02 0 0 0
4777 192 4 0.0000000000000000e+00 -3.7865829953423052e+01 -7.9312610403711631e+01 -1.6484824836158532e+02 0 0 0
4778 192 4 0.0000000000000000e+00 -3.4101026536593643e+01 -7.0005467734079076e+01 -1.6579105261246244e+02 0 0 0
4779 192 4 0.0000000000000000e+00 -2.4926759962490248e+01 -6.6561478900500290e+01 -1.6609001546004691e+02 0 0 0
4780 192 4 0.0000000000000000e+00 -1.5381920411576699e+01 -6.2533434308593364e+01 -1.6569369428166249e+02 0 0 0
4463 179 3 0.0000000000000000e+00 -4.9020220772128987e+01 -2.8698384648532230e+01 -1.7618213950311414e+02 0 0 0
4462 179 4 0.0000000000000000e+00 -4.3798337730369759e+01 -3.6434998616026782e+01 -1.7305751076580506e+02 0 0 0
4461 179 4 0.0000000000000000e+00 -4.0193035280140407e+01 -3.8264346147404019e+01 -1.6423635277098154e+02 0 0 0
1456 59 2 0.0000000000000000e+00 -2.7422891964826118e+01 -3.6045639181802734e+01 -1.6921289418080079e+02 0 0 0
1455 59 2 0.0000000000000000e+00 -2.8208226611888200e+01 -2.8056699548371366e+01 -1.7535477974657485e+02 0 0 0
3060 123 4 0.0000000000000000e+00 -6.5173355748632261e+01 -1.3600643878842209e+01 -1.7581562797375338e+02 0 0 0
3061 123 4 0.0000000000000000e+00 -6.8706325028354257e+01 -2.2086521271243054e+01 -1.7139596558105171e+02 0 0 0
2246 90 2 0.0000000000000000e+00 -5.7135916588713080e+01 -1.4096015162702423e+01 -1.6580485803825601e+02 0 0 0
2245 90 2 0.0000000000000000e+00 -4.9346998653797577e+01 -1.9916559836513411e+01 -1.6722333543573129e+02 0 0 0
2244 90 1 0.0000000000000000e+00 -4.0524243183616889e+01 -2.2938539897165221e+01 -1.7146919229234572e+02 0 0 0
2243 90 2 0.0000000000000000e+00 -3.3865013758797367e+01 -1.5892956641075756e+01 -1.7433645621493628e+02 0 0 0
2247 90 2 0.0000000000000000e+00 -6.6457080931713591e+01 -1.1910530450288940e+01 -1.6456107796517432e+02 0 0 0
3407 137 3 0.0000000000000000e+00 -5.1296240694759618e+01 -3.3466439787755835e+00 -1.6987741401514214e+02 0 0 0
3406 137 4 0.0000000000000000e+00 -4.5484019523897715e+01 -1.0540217205609778e+01 -1.7299121215363348e+02 0 0 0
3405 137 4 0.0000000000000000e+00 -3.8809861855174645e+01 -1.2256005134356714e+01 -1.6584718991397347e+02 0 0 0
2242 90 2 0.0000000000000000e+00 -3.1340086940184733e+01 -5.8238919679512540e+00 -1.7582574541535786e+02 0 0 0
406 17 2 0.0000000000000000e+00 -2.5163430506474629e+01 -6.7066918351998361e-01 -1.6578158591417903e+02 0 0 0
3206 129 4 0.0000000000000000e+00 -1.1900822454178023e+01 -1.3009074984276820e+01 -1.7059019640141992e+02 0 0 0
407 17 1 0.0000000000000000e+00 -1.5518072183046563e+01 -2.2515186643127438e+00 -1.6772080180518446e+02 0 0 0
3207 129 3 0.0000000000000000e+00 -7.3411272511447558e+00 -5.4370752315968183e+00 -1.7522357865039314e+02 0 0 0
3208 129 4 0.0000000000000000e+00 1.0929932734886283e-01 1.9168451836896926e-02 -1.7149887234865801e+02 0 0 0
3409 137 4 0.0000000000000000e+00 -6.3448128340870902e+01 1.1959338777455725e+01 -1.6742467706516058e+02 0 0 0
3408 137 4 0.0000000000000000e+00 -5.9206582267493474e+01 2.9000123427849616e+00 -1.6734105219741480e+02 0 0 0
402 17 2 0.0000000000000000e+00 -5.4704258562048246e+01 1.2592044891818132e+01 -1.7247790984019974e+02 0 0 0
403 17 2 0.0000000000000000e+00 -4.4157212274299425e+01 1.2263016374590393e+01 -1.7380894620555054e+02 0 0 0
404 17 2 0.0000000000000000e+00 -3.8666056678833691e+01 8.4789927452180720e+00 -1.6609784013149368e+02 0 0 0
2241 90 2 0.0000000000000000e+00 -3.2812407623992812e+01 4.3710857279183237e+00 -1.7554015132819555e+02 0 0 0
2240 90 2 0.0000000000000000e+00 -3.1503894167538984e+01 1.4033011692083472e+01 -1.7219849277355246e+02 0 0 0
3209 129 4 0.0000000000000000e+00 5.4880333757194748e+00 5.5811753259598982e+00 -1.6566458556088455e+02 0 0 0
1848 74 2 0.0000000000000000e+00 -5.1741814848859470e+01 -8.6206839007257130e+01 -1.5834588845376271e+02 0 0 0
3172 127 4 0.0000000000000000e+00 -7.8706975594886970e+01 -7.5643889268235554e+01 -1.4952718385409415e+02 0 0 0
1847 74 2 0.0000000000000000e+00 -5.8233049612383788e+01 -8.1761891537230696e+01 -1.5166635246905790e+02 0 0 0
270 11 2 0.0000000000000000e+00 -5.0224817415532591e+01 -7.1884098315861877e+01 -1.5890662084940070e+02 0 0 0
269 11 1 0.0000000000000000e+00 -4.7447768252085716e+01 -7.6074073981571885e+01 -1.5006909115036868e+02 0 0 0
3171 127 4 0.0000000000000000e+00 -8.1214608088517537e+01 -6.6055320969918753e+01 -1.5127674305467431e+02 0 0 0
271 11 2 0.0000000000000000e+00 -4.7799517555732010e+01 -6.1918857720629354e+01 -1.5985384655103468e+02 0 0 0
3274 131 4 0.0000000000000000e+00 -4.5284735205556068e+01 -5.6251108107490147e+01 -1.5176679035319782e+02 0 0 0
4781 192 4 0.0000000000000000e+00 -1.4584719169994548e+01 -5.5333767534424979e+01 -1.5890402004461481e+02 0 0 0
3271 131 4 0.0000000000000000e+00 -1.9106230900971070e+01 -6.1338567934661405e+01 -1.4916672839630445e+02 0 0 0
3270 131 4 0.0000000000000000e+00 -9.3985914692774131e+00 -6.0774774195702641e+01 -1.4939246544848828e+02 0 0 0
272 11 2 0.0000000000000000e+00 -4.9184550168455530e+01 -5.1771917175108747e+01 -1.6210517843140079e+02 0 0 0
273 11 2 0.0000000000000000e+00 -5.5366115643465463e+01 -4.6649878823396278e+01 -1.5595042300161907e+02 0 0 0
3273 131 4 0.0000000000000000e+00 -3.6509923994154782e+01 -5.1632811254760171e+01 -1.5134790408639648e+02 0 0 0
4782 192 3 0.0000000000000000e+00 -1.7722396575282676e+01 -4.6863368716324040e+01 -1.5579824691198041e+02 0 0 0
3064 123 4 0.0000000000000000e+00 -7.9818561031933356e+01 -3.8014917737202545e+01 -1.5163388646778793e+02 0 0 0
3063 123 3 0.0000000000000000e+00 -7.6395261707551356e+01 -2.9674364647115890e+01 -1.5649421342619056e+02 0 0 0
275 11 1 0.0000000000000000e+00 -6.6682427781599358e+01 -3.2129977407074158e+01 -1.5032978244675959e+02 0 0 0
274 11 2 0.0000000000000000e+00 -5.9552167558920431e+01 -3.7424465901655346e+01 -1.5498927878714284e+02 0 0 0
4460 179 4 0.0000000000000000e+00 -3.6295251363717114e+01 -3.9969804723374629e+01 -1.5497626377967239e+02 0 0 0
4459 179 4 0.0000000000000000e+00 -3.1404657885836180e+01 -3.2443071357566566e+01 -1.5136164833022178e+02 0 0 0
1458 59 2 0.0000000000000000e+00 -1.1090193783366429e+01 -3.4293232420621074e+01 -1.5860724955293080e+02 0 0 0
1457 59 1 0.0000000000000000e+00 -1.9240641168241542e+01 -3.8320299131606539e+01 -1.6332462308417965e+02 0 0 0
1459 59 2 0.0000000000000000e+00 -2.2885423402674174e+00 -3.0445231982191640e+01 -1.5454319322396645e+02 0 0 0
3062 123 4 0.0000000000000000e+00 -6.9343695449628328e+01 -2.5617402896866096e+01 -1.6181483552714246e+02 0 0 0
3404 137 4 0.0000000000000000e+00 -2.9777203712142999e+01 -1.4488681157858871e+01 -1.6140666967601180e+02 0 0 0
3403 137 4 0.0000000000000000e+00 -2.2685818075500411e+01 -1.3319995591247366e+01 -1.5364422466609068e+02 0 0 0
3204 129 4 0.0000000000000000e+00 -2.6942864581104859e+00 -1.9104070802213979e+01 -1.5888466094015695e+02 0 0 0
457 19 1 0.0000000000000000e+00 1.4876197412378003e+00 -1.8173910781232525e+01 -1.5012337400097064e+02 0 0 0
2248 90 2 0.0000000000000000e+00 -6.7492690226888868e+01 -1.2863282486684305e+01 -1.5464729137594799e+02 0 0 0
2249 90 2 0.0000000000000000e+00 -6.3634796228666360e+01 -3.8134540183112162e+00 -1.4965839278901757e+02 0 0 0
1054 43 2 0.0000000000000000e+00 -5.4382481184112677e+01 -3.0093140612611293e+00 -1.5569277814877935e+02 0 0 0
1055 43 2 0.0000000000000000e+00 -4.4889356906545942e+01 -7.4369169101392520e+00 -1.5778716234118752e+02 0 0 0
1056 43 2 0.0000000000000000e+00 -3.8235486790702254e+01 -1.1280249101509593e+01 -1.5134037258395244e+02 0 0 0
3402 137 4 0.0000000000000000e+00 -1.3146992606193169e+01 -9.9958673096518815e+00 -1.5447990329665424e+02 0 0 0
3205 129 4 0.0000000000000000e+00 -7.0024885857203119e+00 -1.0145244182364690e+01 -1.6215056770998095e+02 0 0 0
3401 137 3 0.0000000000000000e+00 -3.0420378009800904e+00 -8.3380757255681317e+00 -1.5194853276415259e+02 0 0 0
458 19 2 0.0000000000000000e+00 5.8606062425908112e+00 -1.1409412871688284e+01 -1.5711466308485583e+02 0 0 0
1053 43 2 0.0000000000000000e+00 -6.0583497799927876e+01 4.7444241795113724e+00 -1.5571013598293354e+02 0 0 0
1052 43 2 0.0000000000000000e+00 -5.8285042524335708e+01 1.4288170163299407e+01 -1.5336042022459668e+02 0 0 0
405 17 2 0.0000000000000000e+00 -3.3194349155752406e+01 2.1633003813001159e+00 -1.6041678944415028e+02 0 0 0
408 17 2 0.0000000000000000e+00 -1.2128168358417575e+01 2.5453650443356204e+00 -1.5908416287865114e+02 0 0 0
409 17 2 0.0000000000000000e+00 -4.2431005228676151e+00 5.9203461533777988e+00 -1.5395152276146933e+02 0 0 0
252 11 2 0.0000000000000000e+00 -5.3880463331763714e+01 -1.2681123603011658e+02 -1.3923812452876746e+02 0 0 0
4152 167 4 0.0000000000000000e+00 -6.3000670792881628e+01 -1.1294068902776577e+02 -1.4245295177363604e+02 0 0 0
4151 167 3 0.0000000000000000e+00 -5.4802316731953908e+01 -1.1629501261375312e+02 -1.4773404429536851e+02 0 0 0
251 11 1 0.0000000000000000e+00 -4.6571729606807899e+01 -1.2005063016408106e+02 -1.4130117703432245e+02 0 0 0
4153 167 4 0.0000000000000000e+00 -6.9905233697850448e+01 -1.0647323962280890e+02 -1.3792387835003819e+02 0 0 0
3173 127 4 0.0000000000000000e+00 -7.9389936314268553e+01 -7.2051023263886265e+01 -1.4003335143993527e+02 0 0 0
1846 74 2 0.0000000000000000e+00 -6.0909419289329641e+01 -8.1862692980993600e+01 -1.4199843934755600e+02 0 0 0
268 11 2 0.0000000000000000e+00 -4.4789040118871938e+01 -7.8961674293409871e+01 -1.4042084157107007e+02 0 0 0
3170 127 4 0.0000000000000000e+00 -8.6016930105870713e+01 -5.9337113273766462e+01 -1.4588146450630438e+02 0 0 0
2385 96 2 0.0000000000000000e+00 -7.1590168012162138e+01 -5.5542232523708790e+01 -1.3510390140611659e+02 0 0 0
3275 131 3 0.0000000000000000e+00 -4.7496408741860428e+01 -6.4702666057571477e+01 -1.4817681562873645e+02 0 0 0
3272 131 4 0.0000000000000000e+00 -2.8428254349642298e+01 -5.8058988046848285e+01 -1.4778053984963648e+02 0 0 0
3269 131 3 0.0000000000000000e+00 6.9764665908992024e-02 -5.8318785518252319e+01 -1.4734368656801917e+02 0 0 0
3169 127 3 0.0000000000000000e+00 -8.4964374291960354e+01 -5.0970683631965734e+01 -1.4053338209423109e+02 0 0 0
3168 127 4 0.0000000000000000e+00 -8.3885912541220463e+01 -4.1228728914981744e+01 -1.3655324888360059e+02 0 0 0
1829 74 2 0.0000000000000000e+00 -2.5908974501485822e+01 -4.6072654213802707e+01 -1.4798099811333353e+02 0 0 0
1828 74 2 0.0000000000000000e+00 -1.7258585441828270e+01 -4.7926424167990199e+01 -1.4257772779349304e+02 0 0 0
1827 74 2 0.0000000000000000e+00 -8.0632850223569186e+00 -4.9651395914786171e+01 -1.3859486043634905e+02 0 0 0
1826 74 1 0.0000000000000000e+00 1.5077001901647014e+00 -5.2913461458643575e+01 -1.3772380210303103e+02 0 0 0
3066 123 4 0.0000000000000000e+00 -8.5360941964323558e+01 -2.7903435956992976e+01 -1.3924537456138307e+02 0 0 0
3065 123 4 0.0000000000000000e+00 -8.7706413583197687e+01 -3.5054803912869794e+01 -1.4615340250718930e+02 0 0 0
1831 74 2 0.0000000000000000e+00 -3.8101984520684034e+01 -3.5745317775284796e+01 -1.4212028104679911e+02 0 0 0
1832 74 1 0.0000000000000000e+00 -4.4162734148346949e+01 -2.7703589762330502e+01 -1.3927473833315733e+02 0 0 0
1830 74 2 0.0000000000000000e+00 -2.8990123142364592e+01 -4.0223751075285350e+01 -1.4047281950971890e+02 0 0 0
4783 192 4 0.0000000000000000e+00 -1.4536091270788450e+01 -3.9967131299786800e+01 -1.4901518058754337e+02 0 0 0
4784 192 4 0.0000000000000000e+00 -1.4560813147698207e+01 -3.9017395221604488e+01 -1.3884017668801116e+02 0 0 0
455 19 2 0.0000000000000000e+00 3.4175826865860155e+00 -3.2742425987243550e+01 -1.3672915723024789e+02 0 0 0
4457 179 3 0.0000000000000000e+00 -3.8720615157696983e+01 -1.7937131792008767e+01 -1.4052270308405846e+02 0 0 0
4458 179 4 0.0000000000000000e+00 -3.3753782530507046e+01 -2.4763897425330612e+01 -1.4561631600434262e+02 0 0 0
456 19 2 0.0000000000000000e+00 2.4520003485008113e+00 -2.4523966506106653e+01 -1.4252091517540148e+02 0 0 0
3161 127 4 0.0000000000000000e+00 -1.0731068280911052e+02 6.5834745621742630e-01 -1.3492614748451015e+02 0 0 0
3159 127 4 0.0000000000000000e+00 -9.0796357479656933e+01 7.4428969004101309e-01 -1.4583602340092759e+02 0 0 0
3158 127 4 0.0000000000000000e+00 -8.6379141336908987e+01 -4.7666434434644884e+00 -1.3910293519222370e+02 0 0 0
2250 90 1 0.0000000000000000e+00 -6.1977421095538041e+01 -1.3236200297658625e+00 -1.3950358768136596e+02 0 0 0
4456 179 4 0.0000000000000000e+00 -4.1206709134285063e+01 -8.9365212885562872e+00 -1.3605050180003357e+02 0 0 0
1057 43 1 0.0000000000000000e+00 -2.9378305398367615e+01 -9.5072203991310680e+00 -1.4646368790862667e+02 0 0 0
1058 43 2 0.0000000000000000e+00 -2.3108679095344431e+01 -3.3364826194412571e+00 -1.4207732466163478e+02 0 0 0
3182 128 3 0.0000000000000000e+00 -3.1807819868094068e+01 -2.7591011474607718e-01 -1.4065700379766687e+02 0 0 0
2059 83 2 0.0000000000000000e+00 -1.2196089651015049e+02 6.0478161610749197e+00 -1.3663804639953648e+02 0 0 0
2060 83 2 0.0000000000000000e+00 -1.1664768742163305e+02 1.1199614972233350e+01 -1.4321331650619121e+02 0 0 0
2061 83 2 0.0000000000000000e+00 -1.0562830744451223e+02 1.0610927811639565e+01 -1.4269592445194684e+02 0 0 0
3160 127 4 0.0000000000000000e+00 -9.9691242738134775e+01 3.1149501864107214e+00 -1.4146096425644973e+02 0 0 0
3627 146 4 0.0000000000000000e+00 -5.0446959460781081e+01 1.1616057553534175e+01 -1.4258703617643002e+02 0 0 0
3626 146 3 0.0000000000000000e+00 -5.3572507795788532e+01 2.2287460534774772e+00 -1.4498612572272015e+02 0 0 0
3183 128 4 0.0000000000000000e+00 -2.8744043114025668e+01 9.2547653820942966e+00 -1.4301803318104359e+02 0 0 0
1059 43 2 0.0000000000000000e+00 -1.9082307945113282e+01 4.6976936787536712e+00 -1.3762225406353841e+02 0 0 0
410 17 2 0.0000000000000000e+00 -1.8162159763377657e+00 4.3844341468144234e+00 -1.4392795558445084e+02 0 0 0
254 11 2 0.0000000000000000e+00 -5.4189790668977466e+01 -1.4041067471540629e+02 -1.2301460171769365e+02 0 0 0
2395 96 2 0.0000000000000000e+00 -1.0219880659736971e+02 -1.2622847439230794e+02 -1.2733190277071984e+02 0 0 0
2396 96 2 0.0000000000000000e+00 -9.4711256447261420e+01 -1.3315264837042403e+02 -1.2750118145452521e+02 0 0 0
2397 96 2 0.0000000000000000e+00 -8.4994978466107753e+01 -1.3219555480182962e+02 -1.2340874288707036e+02 0 0 0
253 11 2 0.0000000000000000e+00 -5.3854634206481151e+01 -1.3385834331367110e+02 -1.3173545594509011e+02 0 0 0
2394 96 1 0.0000000000000000e+00 -1.1094832880188073e+02 -1.2139497707706376e+02 -1.2577741197839248e+02 0 0 0
2393 96 2 0.0000000000000000e+00 -1.0841889504788979e+02 -1.1221323358858238e+02 -1.2241690348894574e+02 0 0 0
4377 176 4 0.0000000000000000e+00 -9.8144808774402833e+01 -1.1770210164157163e+02 -1.2147207419526872e+02 0 0 0
4155 167 4 0.0000000000000000e+00 -8.0173560681390711e+01 -1.1494303013978012e+02 -1.2486212162151018e+02 0 0 0
2392 96 2 0.0000000000000000e+00 -1.0861320131575755e+02 -1.0562471704524280e+02 -1.3025949582664231e+02 0 0 0
2391 96 2 0.0000000000000000e+00 -1.0072699142907106e+02 -9.9822298543727157e+01 -1.2886519912985423e+02 0 0 0
4154 167 4 0.0000000000000000e+00 -7.3710379012177938e+01 -1.0905667708403973e+02 -1.2907057027627479e+02 0 0 0
2390 96 2 0.0000000000000000e+00 -9.7738323744803438e+01 -9.1192336992253743e+01 -1.3283638384296009e+02 0 0 0
2389 96 2 0.0000000000000000e+00 -8.9335095777650935e+01 -8.6415713833138653e+01 -1.3459250679344973e+02 0 0 0
1844 74 1 0.0000000000000000e+00 -6.1957116031186921e+01 -8.4537510278746197e+01 -1.2659098343128862e+02 0 0 0
3526 142 3 0.0000000000000000e+00 -5.4476742492673054e+01 -9.2317176297549366e+01 -1.2236449646992112e+02 0 0 0
3175 127 3 0.0000000000000000e+00 -9.3634845771088052e+01 -7.4366892517740141e+01 -1.3226310697809086e+02 0 0 0
2388 96 1 0.0000000000000000e+00 -8.3810577469065706e+01 -7.9573688901037471e+01 -1.3010052255543800e+02 0 0 0
2387 96 2 0.0000000000000000e+00 -7.7173379910227837e+01 -7.2456340900976116e+01 -1.2824900129797905e+02 0 0 0
266 11 2 0.0000000000000000e+00 -5.1250677153289153e+01 -8.2464513200087865e+01 -1.2206346391266001e+02 0 0 0
1845 74 2 0.0000000000000000e+00 -5.9756038859701150e+01 -7.6967475980803343e+01 -1.3307437631039642e+02 0 0 0
267 11 2 0.0000000000000000e+00 -4.9504197944246272e+01 -8.1989339043655320e+01 -1.3237368873637956e+02 0 0 0
2796 112 4 0.0000000000000000e+00 -3.3531295674291925e+01 -6.8891049231789751e+01 -1.2229878197724388e+02 0 0 0
2152 87 2 0.0000000000000000e+00 -1.0890370035618117e+01 -6.9539578097728963e+01 -1.2319654097395582e+02 0 0 0
589 24 2 0.0000000000000000e+00 -9.0406429196076019e+01 -6.0585408541492576e+01 -1.2767187780843322e+02 0 0 0
3174 127 4 0.0000000000000000e+00 -8.5995857814468266e+01 -6.7914325923989935e+01 -1.3417470340348791e+02 0 0 0
590 24 2 0.0000000000000000e+00 -8.5931039195614005e+01 -6.8450044907186282e+01 -1.2317657806750562e+02 0 0 0
2386 96 2 0.0000000000000000e+00 -7.0756176846593462e+01 -6.5570156490771708e+01 -1.3268019867630304e+02 0 0 0
2795 112 4 0.0000000000000000e+00 -2.3989018059257234e+01 -6.5358180741252937e+01 -1.2513742242551471e+02 0 0 0
2794 112 3 0.0000000000000000e+00 -1.6207878544191207e+01 -5.8484254505437498e+01 -1.2624392065238747e+02 0 0 0
2151 87 1 0.0000000000000000e+00 -5.5211876833240057e+00 -6.1635996333723966e+01 -1.2417200545982179e+02 0 0 0
2377 96 2 0.0000000000000000e+00 -1.2154333072131398e+02 -4.5117640476064331e+01 -1.2593877627014005e+02 0 0 0
2378 96 2 0.0000000000000000e+00 -1.1338173033964560e+02 -4.8783947192823781e+01 -1.2104923959070246e+02 0 0 0
588 24 1 0.0000000000000000e+00 -8.8461696659218319e+01 -5.1004902379576187e+01 -1.2958534955270838e+02 0 0 0
587 24 2 0.0000000000000000e+00 -9.6407274656946726e+01 -4.8814341003001530e+01 -1.2459118771357113e+02 0 0 0
2384 96 2 0.0000000000000000e+00 -6.4326060534802210e+01 -5.3884246905909677e+01 -1.2937591295521420e+02 0 0 0
2793 112 4 0.0000000000000000e+00 -1.0838943642995909e+01 -5.0364315811994700e+01 -1.2302924374606668e+02 0 0 0
454 19 2 0.0000000000000000e+00 3.9360807281432875e+00 -4.0985046462886537e+01 -1.3082473356757546e+02 0 0 0
453 19 2 0.0000000000000000e+00 1.1502390383719459e+00 -4.7781068615582129e+01 -1.2461087406331993e+02 0 0 0
2376 96 1 0.0000000000000000e+00 -1.2717156697328635e+02 -3.7407831114988753e+01 -1.2570645757323794e+02 0 0 0
3153 127 4 0.0000000000000000e+00 -1.0397990242476124e+02 -4.0555558885579757e+01 -1.2372931741102398e+02 0 0 0
3152 127 4 0.0000000000000000e+00 -1.1175200012805429e+02 -3.6088801585141738e+01 -1.2065743806873814e+02 0 0 0
3154 127 4 0.0000000000000000e+00 -9.5760544688378957e+01 -3.8090979352842595e+01 -1.2829399143971517e+02 0 0 0
3155 127 4 0.0000000000000000e+00 -9.2314933731874220e+01 -2.8196379834621890e+01 -1.2918611109583205e+02 0 0 0
3166 127 4 0.0000000000000000e+00 -8.6780197514524048e+01 -2.8583438804234756e+01 -1.2097808213808041e+02 0 0 0
3167 127 4 0.0000000000000000e+00 -8.3821830785433434e+01 -3.5247252994774520e+01 -1.2813389115588203e+02 0 0 0
3068 123 4 0.0000000000000000e+00 -7.5959098260519411e+01 -3.0518282623547361e+01 -1.2262901986586429e+02 0 0 0
1834 74 2 0.0000000000000000e+00 -4.9949732001237507e+01 -2.9954505431653889e+01 -1.2171183905785242e+02 0 0 0
1833 74 2 0.0000000000000000e+00 -5.0109414813688787e+01 -3.0859448124631943e+01 -1.3150261569584370e+02 0 0 0
1835 74 2 0.0000000000000000e+00 -4.2633219453358343e+01 -3.7307540033480137e+01 -1.2122514104173513e+02 0 0 0
4785 192 4 0.0000000000000000e+00 -1.6063774560226182e+01 -3.2888011791168140e+01 -1.3191861274348017e+02 0 0 0
3176 128 3 0.0000000000000000e+00 -1.5306727345440756e+01 -3.8101401356140293e+01 -1.2294363562757206e+02 0 0 0
3261 131 4 0.0000000000000000e+00 4.7417070322249755e+00 -3.5478681895385741e+01 -1.2298794194898024e+02 0 0 0
3260 131 4 0.0000000000000000e+00 -4.1778551025224955e+00 -3.1716528093552306e+01 -1.2607693736334969e+02 0 0 0
3156 127 4 0.0000000000000000e+00 -8.7787977645748938e+01 -1.9398021998847835e+01 -1.2619494683185025e+02 0 0 0
3067 123 4 0.0000000000000000e+00 -7.9466645374677327e+01 -2.6741751391280005e+01 -1.3117014096826460e+02 0 0 0
581 24 2 0.0000000000000000e+00 -6.4491648511633258e+01 -2.6285538944324795e+01 -1.2175861797315805e+02 0 0 0
3179 128 4 0.0000000000000000e+00 -2.6914925607741630e+01 -1.5751303080255672e+01 -1.2530312546774105e+02 0 0 0
4786 192 4 0.0000000000000000e+00 -1.1695087547242013e+01 -2.4322018127333980e+01 -1.2948589789753615e+02 0 0 0
4787 192 4 0.0000000000000000e+00 -8.8290164241811002e+00 -1.5324000548520084e+01 -1.2625768538504008e+02 0 0 0
3178 128 4 0.0000000000000000e+00 -1.9858195318483610e+01 -2.2858322527655424e+01 -1.2271694569499326e+02 0 0 0
3259 131 4 0.0000000000000000e+00 -3.9846767513506229e+00 -2.3496209033065515e+01 -1.2028530134752093e+02 0 0 0
2057 83 1 0.0000000000000000e+00 -1.2945704989293262e+02 -1.5719006892008407e+00 -1.2239888495521409e+02 0 0 0
3162 127 4 0.0000000000000000e+00 -1.1320506482512671e+02 -3.5660601354890549e+00 -1.2816141194969325e+02 0 0 0
3163 127 3 0.0000000000000000e+00 -1.0633267056070946e+02 -7.5681890881385874e+00 -1.2154762895963184e+02 0 0 0
2169 87 1 0.0000000000000000e+00 -9.0453069310096652e+01 7.2190220230283308e-01 -1.2533264125252823e+02 0 0 0
3157 127 3 0.0000000000000000e+00 -8.8160422072166483e+01 -9.0838072006302628e+00 -1.3005045703992869e+02 0 0 0
4455 179 4 0.0000000000000000e+00 -4.5223631974525830e+01 -9.0707668844163658e-01 -1.3280065403105920e+02 0 0 0
3181 128 4 0.0000000000000000e+00 -3.2217407985551681e+01 -1.4561444640133365e+00 -1.3122303255594278e+02 0 0 0
3180 128 4 0.0000000000000000e+00 -3.3863091335238828e+01 -9.1199352388593855e+00 -1.2407799476429518e+02 0 0 0
4788 192 3 0.0000000000000000e+00 -6.2902933782381218e+00 -6.2805635949674654e+00 -1.2331705186543211e+02 0 0 0
412 17 2 0.0000000000000000e+00 5.6888157976778313e+00 -5.3828969324219340e+00 -1.3015553522504209e+02 0 0 0
2058 83 2 0.0000000000000000e+00 -1.2758427899310496e+02 6.5162609558609725e+00 -1.2823712440642049e+02 0 0 0
4477 180 4 0.0000000000000000e+00 -1.2019757643702334e+02 1.4211216793644695e+01 -1.2627620954230217e+02 0 0 0
4478 180 4 0.0000000000000000e+00 -1.1121258582079344e+02 1.1756662181132256e+01 -1.2232363977468046e+02 0 0 0
2168 87 2 0.0000000000000000e+00 -8.0300445180491934e+01 2.0647220660903103e+00 -1.2759552592520149e+02 0 0 0
2167 87 2 0.0000000000000000e+00 -7.1259260605934756e+01 6.4729037371675915e+00 -1.2749454051564784e+02 0 0 0
4452 179 4 0.0000000000000000e+00 -6.3810594324677311e+01 1.3041295007067463e+01 -1.2306087542130157e+02 0 0 0
2166 87 2 0.0000000000000000e+00 -6.5026487049845002e+01 1.6365361558412146e+00 -1.2131016078430238e+02 0 0 0
4453 179 4 0.0000000000000000e+00 -6.2045350943694622e+01 7.8059455218451053e+00 -1.3081868231113978e+02 0 0 0
4454 179 4 0.0000000000000000e+00 -5.2206670629457001e+01 6.6202882282293176e+00 -1.3336004088138347e+02 0 0 0
2997 120 4 0.0000000000000000e+00 -4.1270707243047553e+01 1.2415116779629491e+01 -1.3453957592091518e+02 0 0 0
2996 120 4 0.0000000000000000e+00 -4.2169608555268617e+01 7.9164325725451778e+00 -1.2531293290408827e+02 0 0 0
661 27 2 0.0000000000000000e+00 -2.7302318141959827e+01 1.2591851211200829e+01 -1.2114435155517464e+02 0 0 0
662 27 2 0.0000000000000000e+00 -2.0362420005981395e+01 5.4469980603707295e+00 -1.2148548680317299e+02 0 0 0
663 27 1 0.0000000000000000e+00 -1.3037355834511922e+01 1.7882549437949355e+00 -1.2550407769676171e+02 0 0 0
411 17 2 0.0000000000000000e+00 2.8739229296880137e-03 1.1533274191682561e+00 -1.3467093478251434e+02 0 0 0
664 27 2 0.0000000000000000e+00 -7.2261336420136466e+00 1.0075675268314097e+01 -1.2742638386390151e+02 0 0 0
4789 192 4 0.0000000000000000e+00 -1.7132263353183206e+00 3.0115857706443867e+00 -1.2405707967300583e+02 0 0 0
665 27 2 0.0000000000000000e+00 1.8380667340169545e+00 1.4163579930753700e+01 -1.2755860644174072e+02 0 0 0
2398 96 2 0.0000000000000000e+00 -7.7227299091974459e+01 -1.2865157067335639e+02 -1.1905467407866688e+02 0 0 0
255 11 2 0.0000000000000000e+00 -6.0678236467163700e+01 -1.3697874220418061e+02 -1.1653665926795432e+02 0 0 0
256 11 2 0.0000000000000000e+00 -5.5333361106475458e+01 -1.3065838283253157e+02 -1.1128125933600835e+02 0 0 0
4376 176 3 0.0000000000000000e+00 -1.0459684225916331e+02 -1.2438080209051097e+02 -1.1641373916202588e+02 0 0 0
4156 167 4 0.0000000000000000e+00 -8.2964998590722701e+01 -1.1874193615993022e+02 -1.1550665280104052e+02 0 0 0
4157 167 3 0.0000000000000000e+00 -8.6427013379439302e+01 -1.2118495019577266e+02 -1.0692093627828136e+02 0 0 0
2400 96 1 0.0000000000000000e+00 -7.7212755044421144e+01 -1.1441479636988362e+02 -1.0790531101058791e+02 0 0 0
2399 96 2 0.0000000000000000e+00 -7.5416056455166384e+01 -1.2380515374569376e+02 -1.1059951537836689e+02 0 0 0
4378 176 4 0.0000000000000000e+00 -9.1403499727413219e+01 -1.1036760526733185e+02 -1.1919028340043620e+02 0 0 0
4379 176 4 0.0000000000000000e+00 -8.2189936435945626e+01 -1.0907447865801856e+02 -1.1782127518713170e+02 0 0 0
4380 176 4 0.0000000000000000e+00 -7.4932835535482155e+01 -1.0553408515145848e+02 -1.1196798167374868e+02 0 0 0
593 24 2 0.0000000000000000e+00 -7.2840191231253598e+01 -8.9177483761211448e+01 -1.0908591981380602e+02 0 0 0
3527 142 4 0.0000000000000000e+00 -4.7957611802805310e+01 -9.0013824510871473e+01 -1.1510905074759334e+02 0 0 0
1986 80 2 0.0000000000000000e+00 -1.0836612129194826e+02 -7.1062382916262678e+01 -1.1609742981674893e+02 0 0 0
1987 80 2 0.0000000000000000e+00 -1.0555598507962802e+02 -7.8497347389394477e+01 -1.1069385065751412e+02 0 0 0
591 24 2 0.0000000000000000e+00 -8.1257314345347780e+01 -7.2636488699488339e+01 -1.1512211485452342e+02 0 0 0
592 24 2 0.0000000000000000e+00 -7.5412481575486098e+01 -8.0427582708723406e+01 -1.1291345628888412e+02 0 0 0
1843 74 2 0.0000000000000000e+00 -6.3955084577687416e+01 -8.0960996623009095e+01 -1.1744569223621565e+02 0 0 0
1842 74 2 0.0000000000000000e+00 -6.5470197754269833e+01 -7.8052013358917790e+01 -1.0773181343122042e+02 0 0 0
265 11 2 0.0000000000000000e+00 -5.2364464103224989e+01 -8.2649451497183193e+01 -1.1213261583937403e+02 0 0 0
2798 112 4 0.0000000000000000e+00 -4.8897709286770095e+01 -7.3133606922617133e+01 -1.1874484794059099e+02 0 0 0
2797 112 4 0.0000000000000000e+00 -3.9702455032185206e+01 -7.4932674199057701e+01 -1.1676960640338845e+02 0 0 0
1164 47 2 0.0000000000000000e+00 -2.2233449910057782e+01 -6.8973427674837907e+01 -1.0698993346494171e+02 0 0 0
1985 80 2 0.0000000000000000e+00 -1.0935347843106537e+02 -6.3594518158085066e+01 -1.0976344478687508e+02 0 0 0
2381 96 2 0.0000000000000000e+00 -8.6056399794296368e+01 -5.7816952639955538e+01 -1.1883872448431008e+02 0 0 0
2382 96 1 0.0000000000000000e+00 -7.6154105972969802e+01 -5.5754165075471207e+01 -1.1832443840238953e+02 0 0 0
2800 112 3 0.0000000000000000e+00 -6.7053664102620772e+01 -6.3510795865426282e+01 -1.1923029241599899e+02 0 0 0
2799 112 4 0.0000000000000000e+00 -5.8152742198922475e+01 -6.7991327309717988e+01 -1.1964961682349028e+02 0 0 0
2153 87 2 0.0000000000000000e+00 -1.4533551181228404e+01 -6.8804975034839330e+01 -1.1386982736644558e+02 0 0 0
2154 87 2 0.0000000000000000e+00 -1.5783428133189441e+01 -5.8705216265564523e+01 -1.1148146773900368e+02 0 0 0
2379 96 2 0.0000000000000000e+00 -1.0378226244617954e+02 -5.0604125728540950e+01 -1.1929260809303810e+02 0 0 0
586 24 2 0.0000000000000000e+00 -9.2300163076440825e+01 -4.3794593782994525e+01 -1.1704938540107707e+02 0 0 0
2380 96 2 0.0000000000000000e+00 -9.4918174839717182e+01 -5.3326967341753281e+01 -1.1556988809292005e+02 0 0 0
2383 96 2 0.0000000000000000e+00 -6.6776785859616353e+01 -5.2647909321916941e+01 -1.1927174751515159e+02 0 0 0
1839 74 2 0.0000000000000000e+00 -5.8082713603999728e+01 -5.3514027497568435e+01 -1.0817296923444775e+02 0 0 0
1836 74 2 0.0000000000000000e+00 -3.6233673986745259e+01 -4.2731961587711844e+01 -1.1609271951229772e+02 0 0 0