LAMMPS data file via write_data, version 5 Jun 2019, timestep = 340000000

5000 atoms
4 atom types
5291 bonds
3 bond types
4600 angles
2 angle types

-2.5000000000000000e+02 2.5000000000000000e+02 xlo xhi
-2.5000000000000000e+02 2.5000000000000000e+02 ylo yhi
-2.5000000000000000e+02 2.5000000000000000e+02 zlo zhi

Masses

1 1000
2 1000
3 1000
4 1000

Pair Coeffs # lj/cut

1 0.18 10
2 0.18 10
3 0.18 10
4 0.18 10

Bond Coeffs # harmonic

1 3 10
2 3 10
3 3 11.22

Angle Coeffs # cosine

1 2
2 2

Atoms # full

273 11 2 0.0000000000000000e+00 -5.7154687065991240e+01 -5.5539583366737340e+01 -1.8357245922122704e+02 0 0 0
3065 123 4 0.0000000000000000e+00 -7.1337207561253308e+01 -4.4949517784646133e+01 -1.8172544910394248e+02 0 0 0
274 11 2 0.0000000000000000e+00 -5.6593491818177469e+01 -4.5902855019743015e+01 -1.8642558276999776e+02 0 0 0
3064 123 4 0.0000000000000000e+00 -7.4438710956783424e+01 -3.5158490473674505e+01 -1.8170841136785981e+02 0 0 0
3063 123 3 0.0000000000000000e+00 -6.5410546680451262e+01 -3.0321013440718307e+01 -1.8463238551754620e+02 0 0 0
275 11 1 0.0000000000000000e+00 -5.5768285966309641e+01 -3.5829239972785004e+01 -1.8579741577432941e+02 0 0 0
3062 123 4 0.0000000000000000e+00 -6.0979988033901456e+01 -2.1917266500228020e+01 -1.8727689863843560e+02 0 0 0
3061 123 4 0.0000000000000000e+00 -6.1460690537193486e+01 -1.4482462610893391e+01 -1.9448857619906278e+02 0 0 0
4463 179 3 0.0000000000000000e+00 -2.5685277981019013e+01 -1.7319802816414740e+01 -1.8152918605216746e+02 0 0 0
1455 59 2 0.0000000000000000e+00 -1.1028327180670745e+01 -1.3184717440170187e+01 -1.8121160734468884e+02 0 0 0
269 11 1 0.0000000000000000e+00 -4.1326328448499289e+01 -8.8026402902419989e+01 -1.7126466473384642e+02 0 0 0
270 11 2 0.0000000000000000e+00 -4.7971448258323512e+01 -8.1744129731321223e+01 -1.7590952015118560e+02 0 0 0
271 11 2 0.0000000000000000e+00 -5.2368689745313119e+01 -7.2940261134538787e+01 -1.7547655425988751e+02 0 0 0
3274 131 4 0.0000000000000000e+00 -3.7949462592296783e+01 -6.9070877321883074e+01 -1.6782800805880265e+02 0 0 0
272 11 2 0.0000000000000000e+00 -5.1180121646358216e+01 -6.3281203540211962e+01 -1.7955577423629481e+02 0 0 0
3273 131 4 0.0000000000000000e+00 -4.3825312672348637e+01 -6.0485403406554461e+01 -1.6829260737876791e+02 0 0 0
2175 87 1 0.0000000000000000e+00 -8.4234966958718076e+01 -4.7171259020507840e+01 -1.6823852504273367e+02 0 0 0
4000 160 3 0.0000000000000000e+00 -7.3555413668308177e+01 -4.7649769807046916e+01 -1.7262512529410358e+02 0 0 0
3066 123 4 0.0000000000000000e+00 -6.2215717157117162e+01 -4.6175878228997604e+01 -1.7762218923300804e+02 0 0 0
3067 123 4 0.0000000000000000e+00 -5.8695811088251659e+01 -4.6656226358053097e+01 -1.6787384203398099e+02 0 0 0
2245 90 2 0.0000000000000000e+00 -3.4332566751843402e+01 -1.7334525265301092e+01 -1.7191334397923524e+02 0 0 0
4461 179 4 0.0000000000000000e+00 -2.4476929904672236e+01 -2.3793988396604327e+01 -1.6913186832434653e+02 0 0 0
4462 179 4 0.0000000000000000e+00 -1.7993324754065636e+01 -1.9892285567777591e+01 -1.7556250375338402e+02 0 0 0
1456 59 2 0.0000000000000000e+00 -5.9317222538411922e+00 -1.9835539821609778e+01 -1.7590095669543439e+02 0 0 0
1842 74 2 0.0000000000000000e+00 -2.5314397355913751e+01 -9.9798175977257387e+01 -1.5648771813699281e+02 0 0 0
268 11 2 0.0000000000000000e+00 -3.5779481054396200e+01 -8.8664705649428910e+01 -1.6308183353976997e+02 0 0 0
267 11 2 0.0000000000000000e+00 -3.7491620719738165e+01 -8.4855620825375283e+01 -1.5393476386661851e+02 0 0 0
1841 74 2 0.0000000000000000e+00 -3.2849068586458067e+01 -9.3394882154594441e+01 -1.5453363554639799e+02 0 0 0
1840 74 2 0.0000000000000000e+00 -4.2845214020663121e+01 -9.5150215561425327e+01 -1.5601728659576531e+02 0 0 0
3275 131 3 0.0000000000000000e+00 -3.9668166191680967e+01 -7.8348836266311096e+01 -1.6529834696270896e+02 0 0 0
3271 131 4 0.0000000000000000e+00 -2.9378168430412224e+01 -5.6746444521524467e+01 -1.5855415332203833e+02 0 0 0
3998 160 4 0.0000000000000000e+00 -8.2654366211943056e+01 -5.1171368072697312e+01 -1.5626291303190459e+02 0 0 0
3999 160 4 0.0000000000000000e+00 -7.7449117816975829e+01 -5.1703569644944011e+01 -1.6444091623579357e+02 0 0 0
3068 123 4 0.0000000000000000e+00 -5.9438518443095852e+01 -4.8599175982411417e+01 -1.5773969603876225e+02 0 0 0
3272 131 4 0.0000000000000000e+00 -3.7824598772253509e+01 -5.4696524191927892e+01 -1.6263138922746134e+02 0 0 0
4456 179 4 0.0000000000000000e+00 -4.0802121671085963e+01 -4.4315965164815104e+01 -1.6345874045400816e+02 0 0 0
4457 179 3 0.0000000000000000e+00 -3.3362523677367712e+01 -4.4724491884588218e+01 -1.5682054492022601e+02 0 0 0
2174 87 2 0.0000000000000000e+00 -7.8717301973040477e+01 -4.0650982681326475e+01 -1.6246709778221521e+02 0 0 0
4455 179 4 0.0000000000000000e+00 -4.6175127040581486e+01 -3.6046160666773112e+01 -1.6101412300137804e+02 0 0 0
4459 179 4 0.0000000000000000e+00 -3.3263540477088419e+01 -2.7203419509417369e+01 -1.5873803070193429e+02 0 0 0
4460 179 4 0.0000000000000000e+00 -2.9791192714489160e+01 -3.2690726859173310e+01 -1.6650914793734430e+02 0 0 0
4781 192 4 0.0000000000000000e+00 -1.0498037082740021e+01 -3.4601417637174933e+01 -1.5509267093797089e+02 0 0 0
3153 127 4 0.0000000000000000e+00 -6.2983184558499829e+01 -2.6378367195800887e+01 -1.6147263726318832e+02 0 0 0
3152 127 4 0.0000000000000000e+00 -6.5107927186950292e+01 -1.7200142689983366e+01 -1.6322279109996489e+02 0 0 0
4454 179 4 0.0000000000000000e+00 -4.8146367615161466e+01 -2.6293824636952447e+01 -1.5965109166239171e+02 0 0 0
2246 90 2 0.0000000000000000e+00 -4.1494591772115250e+01 -1.4001758268262385e+01 -1.6549358086460091e+02 0 0 0
4782 192 3 0.0000000000000000e+00 -8.6504505342724300e+00 -2.5307855271345193e+01 -1.5918506989417864e+02 0 0 0
3171 127 4 0.0000000000000000e+00 -6.2998910301782665e+01 -9.8428991965149706e+01 -1.4372652134866544e+02 0 0 0
3172 127 4 0.0000000000000000e+00 -5.6047971211698247e+01 -1.0452201188753241e+02 -1.4491436880621788e+02 0 0 0
1843 74 2 0.0000000000000000e+00 -1.6115181155883647e+01 -1.0106048376375719e+02 -1.5207809120293101e+02 0 0 0
3526 142 3 0.0000000000000000e+00 -1.4447846076805304e+01 -1.0737299734350817e+02 -1.4147891032605071e+02 0 0 0
1844 74 1 0.0000000000000000e+00 -8.1010834528765656e+00 -1.0002347780637866e+02 -1.4656734550871792e+02 0 0 0
3170 127 4 0.0000000000000000e+00 -6.8397893895095322e+01 -9.0917264578668679e+01 -1.4766575240206504e+02 0 0 0
1839 74 2 0.0000000000000000e+00 -5.1782487370343667e+01 -9.5839895413225236e+01 -1.5304614781180075e+02 0 0 0
1838 74 1 0.0000000000000000e+00 -5.8732629371381051e+01 -8.9863353346395655e+01 -1.4758414498491652e+02 0 0 0
3168 127 4 0.0000000000000000e+00 -8.0073657421434206e+01 -7.7220780999089456e+01 -1.4120367227694507e+02 0 0 0
3169 127 3 0.0000000000000000e+00 -7.2070997329794878e+01 -8.1673204840614474e+01 -1.4643096365109338e+02 0 0 0
1837 74 2 0.0000000000000000e+00 -5.6832072699774457e+01 -7.9855694979851663e+01 -1.4564505602840279e+02 0 0 0
1836 74 2 0.0000000000000000e+00 -5.2917493285165264e+01 -7.1112981830500900e+01 -1.4108013436375560e+02 0 0 0
266 11 2 0.0000000000000000e+00 -3.3916604271782553e+01 -7.9798480032573451e+01 -1.4560787903693097e+02 0 0 0
3167 127 4 0.0000000000000000e+00 -8.1027566269561049e+01 -6.7528740837956249e+01 -1.4291908209285828e+02 0 0 0
586 24 2 0.0000000000000000e+00 -7.0820486604725318e+01 -6.7022539776198343e+01 -1.4765640201374276e+02 0 0 0
585 24 2 0.0000000000000000e+00 -6.8554616928226096e+01 -5.6955403437748764e+01 -1.4872563259005977e+02 0 0 0
1835 74 2 0.0000000000000000e+00 -5.6421694411091558e+01 -6.1515705279707461e+01 -1.4149617535350134e+02 0 0 0
3270 131 4 0.0000000000000000e+00 -2.5532424408933874e+01 -6.3814656125033984e+01 -1.5259511521427376e+02 0 0 0
3269 131 3 0.0000000000000000e+00 -2.1139327912537670e+01 -6.7599310078129648e+01 -1.4428278078933690e+02 0 0 0
1826 74 1 0.0000000000000000e+00 -1.4571997680145062e+01 -5.9391338356795259e+01 -1.4007588719522130e+02 0 0 0
3997 160 4 0.0000000000000000e+00 -8.7255651321505098e+01 -4.9651162804820139e+01 -1.4744544846837888e+02 0 0 0
584 24 2 0.0000000000000000e+00 -6.0822815500414919e+01 -5.1028431918479647e+01 -1.4842089853126060e+02 0 0 0
583 24 2 0.0000000000000000e+00 -6.3990267399291497e+01 -4.1750302231111760e+01 -1.4766994832123987e+02 0 0 0
1834 74 2 0.0000000000000000e+00 -5.0001047620333054e+01 -5.4334788824190952e+01 -1.4254277814712600e+02 0 0 0
3069 123 3 0.0000000000000000e+00 -5.3661711285752297e+01 -4.5372078743681897e+01 -1.4965823174771992e+02 0 0 0
3070 123 4 0.0000000000000000e+00 -4.6470074777730723e+01 -4.2812293884749643e+01 -1.4336565373422204e+02 0 0 0
1832 74 1 0.0000000000000000e+00 -3.4156724904221718e+01 -4.7090124029135886e+01 -1.4568953726707582e+02 0 0 0
4779 192 4 0.0000000000000000e+00 -1.3739500048946340e+01 -5.2250269836059118e+01 -1.4769060650796089e+02 0 0 0
4780 192 4 0.0000000000000000e+00 -1.0537496908746354e+01 -4.3492369490937833e+01 -1.5058759419353328e+02 0 0 0
2173 87 2 0.0000000000000000e+00 -7.4751431134801464e+01 -3.8356893949536087e+01 -1.5336141300080450e+02 0 0 0
2172 87 2 0.0000000000000000e+00 -7.3268711102798747e+01 -3.6704780871591545e+01 -1.4354932079266709e+02 0 0 0
3154 127 4 0.0000000000000000e+00 -6.2274086433988181e+01 -3.0458736295314374e+01 -1.5304609040494628e+02 0 0 0
582 24 1 0.0000000000000000e+00 -5.6493709205737794e+01 -3.8888575033238929e+01 -1.4187406106609788e+02 0 0 0
3155 127 4 0.0000000000000000e+00 -5.8345630410264938e+01 -2.9280581940220173e+01 -1.4335833898862356e+02 0 0 0
1831 74 2 0.0000000000000000e+00 -3.8179427982023725e+01 -3.7857276347820253e+01 -1.4656987106190928e+02 0 0 0
4458 179 4 0.0000000000000000e+00 -3.0615490555028114e+01 -3.5797616504664937e+01 -1.5356866577850724e+02 0 0 0
2379 96 2 0.0000000000000000e+00 -8.5503061390273572e+01 -1.7848202090483905e+01 -1.4211322306063582e+02 0 0 0
2377 96 2 0.0000000000000000e+00 -6.8027150936756215e+01 -1.8437052369637239e+01 -1.4227330353225250e+02 0 0 0
2376 96 1 0.0000000000000000e+00 -6.1849543234446429e+01 -1.5958518101216971e+01 -1.4975349458161028e+02 0 0 0
4453 179 4 0.0000000000000000e+00 -4.7063159958727951e+01 -2.1186389496383534e+01 -1.5149573065712815e+02 0 0 0
4452 179 4 0.0000000000000000e+00 -5.2392555404837175e+01 -1.9276911400682256e+01 -1.4302148364008156e+02 0 0 0
578 24 2 0.0000000000000000e+00 -3.5755928023030926e+01 -1.6181469019836154e+01 -1.4505469639058219e+02 0 0 0
577 24 2 0.0000000000000000e+00 -2.6344064060279504e+01 -1.7555885424825334e+01 -1.4798008119118015e+02 0 0 0
576 24 1 0.0000000000000000e+00 -1.9553624860190382e+01 -1.6859618108555093e+01 -1.4041338713034287e+02 0 0 0
3176 128 3 0.0000000000000000e+00 -9.4181619371171852e+00 -1.3504058596239318e+01 -1.4447324219686521e+02 0 0 0
591 24 2 0.0000000000000000e+00 -7.3045038117207966e+01 -1.0574170995106394e+02 -1.3021135108797844e+02 0 0 0
590 24 2 0.0000000000000000e+00 -7.0638694278942040e+01 -9.8200161034533906e+01 -1.3559633473639713e+02 0 0 0
3173 127 4 0.0000000000000000e+00 -5.7512702322070382e+01 -9.9538271625217689e+01 -1.3620237783741774e+02 0 0 0
3527 142 4 0.0000000000000000e+00 -1.3638668966064008e+01 -9.9747326431582124e+01 -1.3440860287306808e+02 0 0 0
589 24 2 0.0000000000000000e+00 -7.2556652263742777e+01 -8.8981180591592405e+01 -1.3845875654505224e+02 0 0 0
3174 127 4 0.0000000000000000e+00 -5.7208250367820327e+01 -9.5445352065034498e+01 -1.2738234853540592e+02 0 0 0
588 24 1 0.0000000000000000e+00 -6.8698298755268425e+01 -7.9993403894473516e+01 -1.3644115723815443e+02 0 0 0
587 24 2 0.0000000000000000e+00 -6.7173840317578239e+01 -7.0720470109053522e+01 -1.3931795567837850e+02 0 0 0
264 11 2 0.0000000000000000e+00 -4.4900856327127059e+01 -7.9202813007574463e+01 -1.2958125239256503e+02 0 0 0
265 11 2 0.0000000000000000e+00 -3.8100599739950397e+01 -7.5694339748988043e+01 -1.3700157164854227e+02 0 0 0
3268 131 4 0.0000000000000000e+00 -1.9967733336149447e+01 -7.3660004999522755e+01 -1.3616051587836444e+02 0 0 0
3267 131 4 0.0000000000000000e+00 -1.4413720607741913e+01 -6.9369260386897892e+01 -1.2863963106492884e+02 0 0 0
3166 127 4 0.0000000000000000e+00 -7.6573369213440728e+01 -5.9818493332960024e+01 -1.3828499805226363e+02 0 0 0
3165 127 4 0.0000000000000000e+00 -6.6950752958624491e+01 -5.7505478749498060e+01 -1.3852665694394662e+02 0 0 0
3164 127 4 0.0000000000000000e+00 -6.0654334431247115e+01 -6.0319031222707110e+01 -1.3134847110806265e+02 0 0 0
2384 96 2 0.0000000000000000e+00 -7.0502494645746751e+01 -5.6403752030198433e+01 -1.2778005687956401e+02 0 0 0
3266 131 4 0.0000000000000000e+00 -8.7219560057139223e+00 -6.1186114173358746e+01 -1.2704677359715465e+02 0 0 0
4183 168 4 0.0000000000000000e+00 -1.1906829035801412e+02 -4.9641124486097894e+01 -1.2784220485280235e+02 0 0 0
4182 168 3 0.0000000000000000e+00 -1.1383416275565048e+02 -4.0904970440686881e+01 -1.2848007300270632e+02 0 0 0
3996 160 4 0.0000000000000000e+00 -8.5306976003824133e+01 -4.9177231842156786e+01 -1.3765213914467870e+02 0 0 0
3995 160 4 0.0000000000000000e+00 -8.6172916211015576e+01 -4.1771012155094276e+01 -1.3143140254335242e+02 0 0 0
2383 96 2 0.0000000000000000e+00 -7.3960067396870869e+01 -4.6251658579543033e+01 -1.2765340208335340e+02 0 0 0
1833 74 2 0.0000000000000000e+00 -4.0746832531964010e+01 -5.1790905803630586e+01 -1.3920564806170262e+02 0 0 0
3072 123 4 0.0000000000000000e+00 -4.2189115636171877e+01 -5.1256653638182527e+01 -1.2681756235281628e+02 0 0 0
3071 123 4 0.0000000000000000e+00 -4.4103240854886060e+01 -4.4286915323827323e+01 -1.3371473097111777e+02 0 0 0
1827 74 2 0.0000000000000000e+00 -2.0434718711769460e+01 -5.2887632903637872e+01 -1.3512463741065071e+02 0 0 0
1828 74 2 0.0000000000000000e+00 -2.9042001393034933e+01 -4.8172832752514211e+01 -1.3165289356867274e+02 0 0 0
476 20 1 0.0000000000000000e+00 -1.1803524032007748e+02 -3.0298706384720816e+01 -1.2999611342347512e+02 0 0 0
2381 96 2 0.0000000000000000e+00 -8.1778261016637146e+01 -2.8262733722080803e+01 -1.2636639369896672e+02 0 0 0
2171 87 2 0.0000000000000000e+00 -6.8483064994511537e+01 -3.4550992671619817e+01 -1.3436754958821655e+02 0 0 0
581 24 2 0.0000000000000000e+00 -5.2583637849971026e+01 -3.2291801889424448e+01 -1.3622628892555076e+02 0 0 0
1830 74 2 0.0000000000000000e+00 -3.9793440640317826e+01 -3.2994821548398541e+01 -1.3775917587826262e+02 0 0 0
1829 74 2 0.0000000000000000e+00 -3.2658627602191068e+01 -3.7949287240035147e+01 -1.3307563784253477e+02 0 0 0
2380 96 2 0.0000000000000000e+00 -8.1354710230938593e+01 -2.1820624388914677e+01 -1.3383255636575902e+02 0 0 0
2057 83 1 0.0000000000000000e+00 -8.6407853820699145e+01 -1.3186571517647806e+01 -1.2944975735998057e+02 0 0 0
2378 96 2 0.0000000000000000e+00 -7.6528179812769721e+01 -1.4534164187083963e+01 -1.3965844336891757e+02 0 0 0
3156 127 4 0.0000000000000000e+00 -6.2966953533587777e+01 -2.4384968805398522e+01 -1.3646140705995390e+02 0 0 0
3157 127 3 0.0000000000000000e+00 -5.9332871227334813e+01 -2.1876039503304320e+01 -1.2733968813986598e+02 0 0 0
2070 83 2 0.0000000000000000e+00 -6.7543392010422764e+01 -1.4714738220018663e+01 -1.2739088037829086e+02 0 0 0
580 24 2 0.0000000000000000e+00 -4.7637642521339266e+01 -2.4188469219288248e+01 -1.3302867666349738e+02 0 0 0
4451 179 3 0.0000000000000000e+00 -5.8062489076172220e+01 -1.4496964477109811e+01 -1.3630385140753478e+02 0 0 0
579 24 2 0.0000000000000000e+00 -3.9646062605477830e+01 -1.7696053087360237e+01 -1.3592896624009475e+02 0 0 0
2152 87 2 0.0000000000000000e+00 -9.4197204004745778e+00 -1.3914453064828884e+01 -1.3015317288689323e+02 0 0 0
2395 96 2 0.0000000000000000e+00 -8.0078471451074890e+01 -1.5208721346543814e+02 -1.1284290389970455e+02 0 0 0
2394 96 1 0.0000000000000000e+00 -7.5939166553995761e+01 -1.4305247854708534e+02 -1.1336362838983005e+02 0 0 0
4378 176 4 0.0000000000000000e+00 -8.6285681656197681e+01 -1.2661164060725531e+02 -1.1469896509576238e+02 0 0 0
4376 176 3 0.0000000000000000e+00 -7.6624837687581973e+01 -1.3586402309516527e+02 -1.2205124183373336e+02 0 0 0
4377 176 4 0.0000000000000000e+00 -8.5766984359005477e+01 -1.3664984615505276e+02 -1.1726573449752371e+02 0 0 0
592 24 2 0.0000000000000000e+00 -7.6850505242445109e+01 -1.0121939307798543e+02 -1.2299116640961860e+02 0 0 0
593 24 2 0.0000000000000000e+00 -8.1726433541585791e+01 -9.6930672135756950e+01 -1.1517567897351533e+02 0 0 0
2388 96 1 0.0000000000000000e+00 -7.2321738985169418e+01 -9.2318237708189727e+01 -1.1474922865044782e+02 0 0 0
3175 127 3 0.0000000000000000e+00 -6.2791274898461097e+01 -9.5194846869240251e+01 -1.1975859221690098e+02 0 0 0
2387 96 2 0.0000000000000000e+00 -7.2758913226182315e+01 -8.4228613470892299e+01 -1.2147241227984870e+02 0 0 0
262 11 2 0.0000000000000000e+00 -3.8817789527182939e+01 -8.8913883399046497e+01 -1.1432627227616175e+02 0 0 0
3528 142 4 0.0000000000000000e+00 -1.1886645215776316e+01 -9.4430942847428824e+01 -1.2601029503838366e+02 0 0 0
3529 142 4 0.0000000000000000e+00 -7.8560938760039809e+00 -9.4742967755758912e+01 -1.1705916238179395e+02 0 0 0
1989 80 2 0.0000000000000000e+00 -1.1021431756920236e+02 -6.8799716770328260e+01 -1.2499644870002230e+02 0 0 0
1988 80 1 0.0000000000000000e+00 -1.0085473545887812e+02 -7.1562766371605264e+01 -1.2217480187578388e+02 0 0 0
1987 80 2 0.0000000000000000e+00 -9.1928922005396529e+01 -7.2887278865240106e+01 -1.1769540299198820e+02 0 0 0
1986 80 2 0.0000000000000000e+00 -8.2569809065825794e+01 -7.6592486333171152e+01 -1.1400959599174197e+02 0 0 0
1985 80 2 0.0000000000000000e+00 -7.3114183880282937e+01 -7.3008435248091828e+01 -1.1432829376170055e+02 0 0 0
2386 96 2 0.0000000000000000e+00 -6.8285026458999326e+01 -7.5877913928373076e+01 -1.2535746796311267e+02 0 0 0
1984 80 2 0.0000000000000000e+00 -6.3360078996851115e+01 -7.0452588900582853e+01 -1.1417726338573684e+02 0 0 0
263 11 1 0.0000000000000000e+00 -4.3361738018707847e+01 -8.2424596434940909e+01 -1.2007297281693349e+02 0 0 0
3083 124 4 0.0000000000000000e+00 -4.0621360703427428e+01 -7.1282185350008675e+01 -1.1397248793079807e+02 0 0 0
1162 47 2 0.0000000000000000e+00 -2.1615600810984802e+01 -7.2944424247758022e+01 -1.1912353874646691e+02 0 0 0
1161 47 2 0.0000000000000000e+00 -2.8625648612313800e+01 -7.5843494483489962e+01 -1.1297522345120498e+02 0 0 0
1990 80 2 0.0000000000000000e+00 -1.1717439640730186e+02 -6.5350567367886313e+01 -1.1787777526727930e+02 0 0 0
4184 168 4 0.0000000000000000e+00 -1.2059174183083873e+02 -5.7191749187282987e+01 -1.2140410758383409e+02 0 0 0
4200 168 3 0.0000000000000000e+00 -1.0542510681213379e+02 -6.1332845052275722e+01 -1.2154873568958806e+02 0 0 0
4199 168 4 0.0000000000000000e+00 -1.0694883957298656e+02 -5.5897229056476959e+01 -1.1344915348362601e+02 0 0 0
2385 96 2 0.0000000000000000e+00 -7.1670594741009438e+01 -6.6126162831441363e+01 -1.2533698917042180e+02 0 0 0
1983 80 2 0.0000000000000000e+00 -6.0479629362608499e+01 -6.2014881795927685e+01 -1.1700950664288803e+02 0 0 0
2075 83 1 0.0000000000000000e+00 -7.1776849200856773e+01 -5.7298420852634806e+01 -1.1690736621425167e+02 0 0 0
3074 123 4 0.0000000000000000e+00 -4.9668965414437594e+01 -5.8263024635453220e+01 -1.1538539142114618e+02 0 0 0
3084 124 4 0.0000000000000000e+00 -3.6640710928161361e+01 -6.2861515332880771e+01 -1.1620088551486658e+02 0 0 0
1163 47 1 0.0000000000000000e+00 -1.3236170707165204e+01 -6.7974322472704415e+01 -1.1618716498750858e+02 0 0 0
4572 183 4 0.0000000000000000e+00 -1.3840990997766220e+01 -5.7810686075044359e+01 -1.1341833901708647e+02 0 0 0
2074 83 2 0.0000000000000000e+00 -7.3947266343617855e+01 -4.7924907693442364e+01 -1.1358624308664842e+02 0 0 0
3163 127 3 0.0000000000000000e+00 -6.2895997012515821e+01 -5.4705553731427997e+01 -1.2281646364289993e+02 0 0 0
3162 127 4 0.0000000000000000e+00 -6.4398450892871310e+01 -4.5027357554229205e+01 -1.1947159831575297e+02 0 0 0
3073 123 4 0.0000000000000000e+00 -5.1642286607358166e+01 -5.3814670979802507e+01 -1.2398246786244890e+02 0 0 0
1982 80 1 0.0000000000000000e+00 -5.9023229555183200e+01 -5.2296206872813471e+01 -1.1360351114515736e+02 0 0 0
3085 124 4 0.0000000000000000e+00 -3.6383422097812925e+01 -5.3179936402175578e+01 -1.1959963122979271e+02 0 0 0
3086 124 4 0.0000000000000000e+00 -2.9492379298010636e+01 -4.6717756582275150e+01 -1.1525836068304454e+02 0 0 0
3088 124 3 0.0000000000000000e+00 -9.5499425708787413e+00 -4.7728328401786513e+01 -1.1304241512132549e+02 0 0 0
4181 168 4 0.0000000000000000e+00 -1.0542121935906084e+02 -3.6328887432910342e+01 -1.2570442553783214e+02 0 0 0
4180 168 4 0.0000000000000000e+00 -9.9197753299246756e+01 -2.9911052782044084e+01 -1.2175335393024226e+02 0 0 0
3993 160 4 0.0000000000000000e+00 -9.0075626417886426e+01 -3.5153239636725722e+01 -1.1334223407049045e+02 0 0 0
3994 160 3 0.0000000000000000e+00 -8.7194374678853734e+01 -3.6626121987939335e+01 -1.2295573313033753e+02 0 0 0
2382 96 1 0.0000000000000000e+00 -7.6207967100062262e+01 -3.7242856751973868e+01 -1.2450138836622554e+02 0 0 0
2170 87 2 0.0000000000000000e+00 -6.3094739091126584e+01 -3.6156564054146230e+01 -1.2551901352237552e+02 0 0 0
2072 83 2 0.0000000000000000e+00 -7.2144417220189638e+01 -2.9778543844478193e+01 -1.1691737728861227e+02 0 0 0
3161 127 4 0.0000000000000000e+00 -6.5089137480393902e+01 -3.6338849230256223e+01 -1.1422594877390837e+02 0 0 0
2169 87 1 0.0000000000000000e+00 -5.6691559462420784e+01 -3.0798328162705356e+01 -1.2101344278286068e+02 0 0 0
2168 87 2 0.0000000000000000e+00 -4.7051583905737054e+01 -2.7664332364260932e+01 -1.1943180846934992e+02 0 0 0
1169 47 1 0.0000000000000000e+00 -1.7716249753470528e+01 -3.0762082941768760e+01 -1.2012669126952517e+02 0 0 0
1168 47 2 0.0000000000000000e+00 -1.0905386638868896e+01 -3.8903801925037790e+01 -1.2011877326316261e+02 0 0 0
477 20 2 0.0000000000000000e+00 -1.1013379109057135e+02 -2.5607250264811949e+01 -1.2602586382079107e+02 0 0 0
478 20 2 0.0000000000000000e+00 -1.0809342497330668e+02 -2.3486102113818511e+01 -1.1635558206447031e+02 0 0 0
479 20 2 0.0000000000000000e+00 -1.0149209327152370e+02 -1.7085987554870009e+01 -1.1288307285911141e+02 0 0 0
4179 168 4 0.0000000000000000e+00 -9.1777597784194285e+01 -2.5430348455842303e+01 -1.1731888282971173e+02 0 0 0
2056 83 2 0.0000000000000000e+00 -7.8252521438719356e+01 -1.5429484179634340e+01 -1.2343188689029486e+02 0 0 0
2071 83 2 0.0000000000000000e+00 -6.7887475312947345e+01 -2.1847809591103754e+01 -1.2084334712271485e+02 0 0 0
3158 127 4 0.0000000000000000e+00 -5.6353768093257372e+01 -2.2316232521500144e+01 -1.1795187913480194e+02 0 0 0
2167 87 2 0.0000000000000000e+00 -4.1860288459644813e+01 -2.1175315338945286e+01 -1.2530010607788395e+02 0 0 0
1171 47 2 0.0000000000000000e+00 -3.1310210378764946e+01 -1.7692106347226748e+01 -1.1388214336936908e+02 0 0 0
1170 47 2 0.0000000000000000e+00 -2.5320326720450641e+01 -2.5982062306580701e+01 -1.1590649934778880e+02 0 0 0
2398 96 2 0.0000000000000000e+00 -1.0115369233077126e+02 -1.6013212035299637e+02 -9.8648737830790509e+01 0 0 0
2396 96 2 0.0000000000000000e+00 -8.9329721056880999e+01 -1.5702558340816913e+02 -1.1217504350111983e+02 0 0 0
2397 96 2 0.0000000000000000e+00 -9.7553838488145601e+01 -1.6075189516515238e+02 -1.0822811721203620e+02 0 0 0
2393 96 2 0.0000000000000000e+00 -7.8273087396885586e+01 -1.3538872511440101e+02 -1.0650227900782305e+02 0 0 0
2392 96 2 0.0000000000000000e+00 -8.0604449839313361e+01 -1.2655406030424562e+02 -1.0293496569133886e+02 0 0 0
4379 176 4 0.0000000000000000e+00 -8.5968759106638117e+01 -1.1637400264482520e+02 -1.1176104081347518e+02 0 0 0
2391 96 2 0.0000000000000000e+00 -7.7220774157383318e+01 -1.1773118909824447e+02 -1.0503307488676053e+02 0 0 0
258 11 2 0.0000000000000000e+00 -6.4256474900475936e+01 -1.1379953158552476e+02 -1.1147896624121219e+02 0 0 0
257 11 1 0.0000000000000000e+00 -6.2701090397298486e+01 -1.1642222182055575e+02 -1.0179788204103608e+02 0 0 0
4380 176 4 0.0000000000000000e+00 -8.5675308626762742e+01 -1.1002661550807409e+02 -1.0410573354591415e+02 0 0 0
2390 96 2 0.0000000000000000e+00 -7.3294156421793218e+01 -1.0883490627043074e+02 -1.0641511328996133e+02 0 0 0
2389 96 2 0.0000000000000000e+00 -6.9302016787065227e+01 -1.0059740302493648e+02 -1.0969633510076412e+02 0 0 0
260 11 2 0.0000000000000000e+00 -4.9489163815635024e+01 -1.0231224088133243e+02 -1.1194768592868388e+02 0 0 0
259 11 2 0.0000000000000000e+00 -5.8462749215315725e+01 -1.0606419165602250e+02 -1.1149012267384661e+02 0 0 0
261 11 2 0.0000000000000000e+00 -4.0888396340236497e+01 -9.7640814277162448e+01 -1.0965912041210153e+02 0 0 0
2355 95 2 0.0000000000000000e+00 -1.2752728913308877e+01 -1.0666235316255137e+02 -1.0049408501929605e+02 0 0 0
3530 142 4 0.0000000000000000e+00 -1.1804809919009282e+01 -1.0026173417795103e+02 -1.0909263652598520e+02 0 0 0
3531 142 4 0.0000000000000000e+00 -6.3996963944789931e+00 -9.9827118864751071e+01 -1.0043774724057903e+02 0 0 0
594 24 1 0.0000000000000000e+00 -8.6715715390892058e+01 -9.0387596942790111e+01 -1.0843353911103337e+02 0 0 0
1159 47 2 0.0000000000000000e+00 -4.0231633171584257e+01 -8.4571867290978730e+01 -1.0103059770340282e+02 0 0 0
595 24 2 0.0000000000000000e+00 -8.8149448456398645e+01 -8.2200749517101343e+01 -1.0306912887037981e+02 0 0 0
3079 124 4 0.0000000000000000e+00 -7.4529340962974473e+01 -7.2698930125601336e+01 -9.9019951073321977e+01 0 0 0
3080 124 4 0.0000000000000000e+00 -6.5826936793593561e+01 -7.3804343247708374e+01 -1.0285319738619278e+02 0 0 0
3082 124 3 0.0000000000000000e+00 -4.7839674368462980e+01 -7.7669831766204524e+01 -1.1084334195230335e+02 0 0 0
3081 124 4 0.0000000000000000e+00 -5.7196495883810876e+01 -7.5895936781876358e+01 -1.0731660378902077e+02 0 0 0
1160 47 2 0.0000000000000000e+00 -3.7244477922355571e+01 -7.9550332763982098e+01 -1.0891839874649831e+02 0 0 0
3300 132 3 0.0000000000000000e+00 -3.0953641607705102e+01 -7.6031560231032884e+01 -9.9739111326299550e+01 0 0 0
4394 176 3 0.0000000000000000e+00 -1.0013951638517076e+01 -7.6264450637945103e+01 -1.0985469250697099e+02 0 0 0
4393 176 4 0.0000000000000000e+00 -8.1303623373793492e+00 -7.8298761239540198e+01 -1.0029612097855474e+02 0 0 0
1992 80 2 0.0000000000000000e+00 -1.3007729471459697e+02 -6.3370907648460928e+01 -1.0203538664593296e+02 0 0 0
4185 168 4 0.0000000000000000e+00 -1.2000471447704000e+02 -5.8708210084813203e+01 -1.1182936339066599e+02 0 0 0
1991 80 2 0.0000000000000000e+00 -1.2417252519967118e+02 -6.6916299219027948e+01 -1.0978109313527716e+02 0 0 0
3075 123 3 0.0000000000000000e+00 -5.1680835672599130e+01 -5.5981334426240771e+01 -1.0596753210436682e+02 0 0 0
4573 183 4 0.0000000000000000e+00 -2.0436066874597149e+01 -5.9857006197170712e+01 -1.0577080731444745e+02 0 0 0
4574 183 4 0.0000000000000000e+00 -2.9325720716328224e+01 -5.9053702096593284e+01 -1.0027642134506949e+02 0 0 0
4571 183 4 0.0000000000000000e+00 -1.0739835596307529e+01 -5.4957182989310219e+01 -1.0506626150600569e+02 0 0 0
4187 168 4 0.0000000000000000e+00 -1.3575392622805612e+02 -4.7877985345724042e+01 -1.0514604658812951e+02 0 0 0
4186 168 4 0.0000000000000000e+00 -1.2790811610954826e+02 -5.3504047239562553e+01 -1.0828293638536620e+02 0 0 0
4198 168 4 0.0000000000000000e+00 -1.0716032925427911e+02 -5.4699216056131910e+01 -1.0326719576029133e+02 0 0 0
3991 160 4 0.0000000000000000e+00 -8.1363653905394173e+01 -4.3376361914728484e+01 -9.9329641621562232e+01 0 0 0
1981 80 2 0.0000000000000000e+00 -6.3690735697028302e+01 -5.0112858499080197e+01 -1.0523337149983657e+02 0 0 0
4575 183 3 0.0000000000000000e+00 -3.4436597359096069e+01 -5.0106605160644342e+01 -1.0051631546904616e+02 0 0 0
3087 124 4 0.0000000000000000e+00 -1.9342939967565034e+01 -4.6531856985790888e+01 -1.1228875507204977e+02 0 0 0
2000 80 1 0.0000000000000000e+00 -1.3227571433865438e+02 -3.2519549573080546e+01 -1.0344323707565324e+02 0 0 0
4188 168 3 0.0000000000000000e+00 -1.3888643292767185e+02 -3.9781410087257491e+01 -9.9117479452517571e+01 0 0 0
3992 160 4 0.0000000000000000e+00 -8.6397479946196782e+01 -3.5987952365930738e+01 -1.0412340717454852e+02 0 0 0
2073 83 2 0.0000000000000000e+00 -7.5791247610910304e+01 -3.8251979532633833e+01 -1.1218788862942152e+02 0 0 0
3160 127 4 0.0000000000000000e+00 -5.9262962662764984e+01 -3.0269205463976629e+01 -1.0930115591650370e+02 0 0 0
2725 109 3 0.0000000000000000e+00 -2.2480211882047360e+01 -3.5918251959745923e+01 -1.1121181762067602e+02 0 0 0
2724 109 4 0.0000000000000000e+00 -2.9313255927545587e+01 -3.0240024899542423e+01 -1.0555711808746483e+02 0 0 0
2158 87 2 0.0000000000000000e+00 -1.2525519144622194e+01 -3.1868706993802999e+01 -1.0798300741683087e+02 0 0 0
2157 87 1 0.0000000000000000e+00 -4.8244640369813157e+00 -3.8736046337542341e+01 -1.0728005980533747e+02 0 0 0
4178 168 4 0.0000000000000000e+00 -8.4633465296757478e+01 -2.6705737049487389e+01 -1.1000155435827257e+02 0 0 0
4177 168 4 0.0000000000000000e+00 -8.0099416548492826e+01 -1.8820095741748105e+01 -1.0524252204689891e+02 0 0 0
3159 127 4 0.0000000000000000e+00 -5.0744312028247066e+01 -2.4489081528044160e+01 -1.1000841917986622e+02 0 0 0
1172 47 2 0.0000000000000000e+00 -3.8325973871650156e+01 -1.3201483652004759e+01 -1.1000950248823887e+02 0 0 0
2160 87 2 0.0000000000000000e+00 -2.0470981532013589e+01 -1.3540310412455113e+01 -1.1113521530144200e+02 0 0 0
2159 87 2 0.0000000000000000e+00 -1.7943561340802511e+01 -2.2249691829896850e+01 -1.0752395352197243e+02 0 0 0
2399 96 2 0.0000000000000000e+00 -9.5206604576764917e+01 -1.5586438959723259e+02 -9.1966528982826787e+01 0 0 0
2400 96 1 0.0000000000000000e+00 -8.7712420554925899e+01 -1.5185037372832610e+02 -8.6383963846862116e+01 0 0 0
4156 167 4 0.0000000000000000e+00 -7.5156031702787530e+01 -1.4733384931776715e+02 -8.5144481213583447e+01 0 0 0
4159 167 4 0.0000000000000000e+00 -9.4659592914609263e+01 -1.2958784046062368e+02 -9.1017982842581347e+01 0 0 0
4158 167 4 0.0000000000000000e+00 -8.7886923291402880e+01 -1.3580548107734387e+02 -8.6715749193275627e+01 0 0 0
4949 198 4 0.0000000000000000e+00 -7.3682745730482793e+01 -1.2992624380242722e+02 -9.1709575102767417e+01 0 0 0