LAMMPS data file via write_data, version 5 Jun 2019, timestep = 370000000

5000 atoms
4 atom types
5292 bonds
3 bond types
4600 angles
2 angle types

-2.5000000000000000e+02 2.5000000000000000e+02 xlo xhi
-2.5000000000000000e+02 2.5000000000000000e+02 ylo yhi
-2.5000000000000000e+02 2.5000000000000000e+02 zlo zhi

Masses

1 1000
2 1000
3 1000
4 1000

Pair Coeffs # lj/cut

1 0.18 10
2 0.18 10
3 0.18 10
4 0.18 10

Bond Coeffs # harmonic

1 3 10
2 3 10
3 3 11.22

Angle Coeffs # cosine

1 2
2 2

Atoms # full

4468 179 4 0.0000000000000000e+00 -2.7720323081948969e+01 -4.3570109671875912e+00 -1.8380244748044737e+02 0 0 0
3058 123 4 0.0000000000000000e+00 -5.9023197115260686e+01 4.0329716671064082e+00 -1.8685431401033048e+02 0 0 0
3057 123 3 0.0000000000000000e+00 -5.4363590569669874e+01 1.2932867346076394e+01 -1.8713711009322361e+02 0 0 0
401 17 1 0.0000000000000000e+00 -4.2695498818670437e+01 1.3237500997052338e+01 -1.8764795510275280e+02 0 0 0
4469 179 3 0.0000000000000000e+00 -2.2305755742825149e+01 2.5931815716774000e+00 -1.8808717422534033e+02 0 0 0
4470 179 4 0.0000000000000000e+00 -1.4136007455489654e+01 3.6523807446125236e+00 -1.9347350148345208e+02 0 0 0
2238 90 1 0.0000000000000000e+00 -1.8979827016533278e+01 1.2419779874461820e+01 -1.8292323903534077e+02 0 0 0
4471 179 4 0.0000000000000000e+00 -7.3305745333848265e+00 1.1591545498062626e+01 -1.9303427607918616e+02 0 0 0
1849 74 2 0.0000000000000000e+00 -5.2834664354965097e+00 -6.4839432566300218e+01 -1.7146368295249445e+02 0 0 0
4452 179 4 0.0000000000000000e+00 -6.2050404232601863e+01 -4.2122515026173872e+01 -1.7019123101820927e+02 0 0 0
4451 179 3 0.0000000000000000e+00 -7.0574124181778004e+01 -3.9201526964164856e+01 -1.7488285475127080e+02 0 0 0
2070 83 2 0.0000000000000000e+00 -7.5396273513905072e+01 -2.7920305820264439e+01 -1.7494889487149223e+02 0 0 0
51 3 1 0.0000000000000000e+00 1.7758558873882521e+01 -3.4801203950148590e+01 -1.7614921750718293e+02 0 0 0
2071 83 2 0.0000000000000000e+00 -7.6734083354391231e+01 -1.8419725205717942e+01 -1.7648522306610053e+02 0 0 0
4466 179 4 0.0000000000000000e+00 -3.7882113099603473e+01 -1.7801563142205467e+01 -1.7410181827187583e+02 0 0 0
2241 90 2 0.0000000000000000e+00 -1.5954438142822992e+01 -1.2468038192361218e+01 -1.7031839338431561e+02 0 0 0
4875 195 3 0.0000000000000000e+00 1.3471316775504906e+01 -2.5462104984745729e+01 -1.7133026093830949e+02 0 0 0
3205 129 4 0.0000000000000000e+00 2.0362400394033038e+01 -1.1892479796520517e+01 -1.7942820540183214e+02 0 0 0
3203 129 4 0.0000000000000000e+00 3.0960647942752225e+01 -1.3644040018241853e+01 -1.7751523040748285e+02 0 0 0
2074 83 2 0.0000000000000000e+00 -9.8567771025761886e+01 -1.0873126119500784e+01 -1.7696464323549685e+02 0 0 0
2073 83 2 0.0000000000000000e+00 -8.8940978750596742e+01 -1.1171470972689875e+01 -1.7966600894333294e+02 0 0 0
2072 83 2 0.0000000000000000e+00 -7.8827322019207898e+01 -8.4928911061751666e+00 -1.7635183523404203e+02 0 0 0
3060 123 4 0.0000000000000000e+00 -5.4843172577094684e+01 -1.0388002704760043e+01 -1.7339943033516212e+02 0 0 0
3059 123 4 0.0000000000000000e+00 -5.5195120062520814e+01 -2.2376513554379698e+00 -1.7994096896733825e+02 0 0 0
3411 137 4 0.0000000000000000e+00 -4.1655443914330085e+01 -1.6799686341812381e+00 -1.7619399439126559e+02 0 0 0
3410 137 4 0.0000000000000000e+00 -4.4236364917495884e+01 -1.0675750813881953e+01 -1.7108029125610378e+02 0 0 0
4467 179 4 0.0000000000000000e+00 -3.2955895016946087e+01 -1.1302675589967201e+01 -1.7980225503146460e+02 0 0 0
2240 90 2 0.0000000000000000e+00 -1.6513009191740757e+01 -2.7815119824462227e+00 -1.7394873468304610e+02 0 0 0
3206 129 4 0.0000000000000000e+00 1.3700214317027879e+01 -4.2595345119986909e+00 -1.7893362796326113e+02 0 0 0
3204 129 4 0.0000000000000000e+00 2.7275162092357501e+01 -4.6637728946191466e+00 -1.8023361204344639e+02 0 0 0
4477 180 4 0.0000000000000000e+00 -1.0768965091100164e+02 5.8333825860980735e+00 -1.7025831671163058e+02 0 0 0
3413 137 3 0.0000000000000000e+00 -5.3059420674292866e+01 1.2511205307537191e+01 -1.7482415360867651e+02 0 0 0
3412 137 4 0.0000000000000000e+00 -4.6681542353242165e+01 6.5291772214595856e+00 -1.7872361507279459e+02 0 0 0
2239 90 2 0.0000000000000000e+00 -2.2027343301015325e+01 4.5845065846742576e+00 -1.7766173190610670e+02 0 0 0
406 17 2 0.0000000000000000e+00 -2.5993444566727844e+00 1.3326607424634561e+01 -1.7676739675930580e+02 0 0 0
407 17 1 0.0000000000000000e+00 6.7102021078017701e-02 3.9933674436991988e+00 -1.7305345696674351e+02 0 0 0
3207 129 3 0.0000000000000000e+00 1.0464114979893182e+01 5.4496468462160879e+00 -1.7735749196493373e+02 0 0 0
3208 129 4 0.0000000000000000e+00 6.8739859835938670e+00 1.3054031548922820e+01 -1.7125447912023128e+02 0 0 0
3273 131 4 0.0000000000000000e+00 -3.6665454540211869e+01 -1.0276694831705395e+02 -1.6225326190667761e+02 0 0 0
3272 131 4 0.0000000000000000e+00 -2.6998892149012256e+01 -1.0060288730946350e+02 -1.6065846863473183e+02 0 0 0
3275 131 3 0.0000000000000000e+00 -4.4031750355925723e+01 -8.6122063663217460e+01 -1.6867469911390614e+02 0 0 0
3274 131 4 0.0000000000000000e+00 -3.9318914881008666e+01 -9.3924636311933185e+01 -1.6554179709004956e+02 0 0 0
3271 131 4 0.0000000000000000e+00 -2.5636884403758025e+01 -9.1144360606926810e+01 -1.5708563156364630e+02 0 0 0
270 11 2 0.0000000000000000e+00 -5.1345985723378291e+01 -7.3887517540091665e+01 -1.6778907943391147e+02 0 0 0
269 11 1 0.0000000000000000e+00 -4.4098561002734286e+01 -7.7018767519879802e+01 -1.6168463626589588e+02 0 0 0
1828 74 2 0.0000000000000000e+00 -2.5165738335481500e+01 -7.0493263201185769e+01 -1.6194909505306606e+02 0 0 0
1827 74 2 0.0000000000000000e+00 -1.5907465933532690e+01 -6.9106323723955697e+01 -1.5824330613785074e+02 0 0 0
1848 74 2 0.0000000000000000e+00 -2.4557997083327860e+00 -7.3530123048869626e+01 -1.6770551503448777e+02 0 0 0
1847 74 2 0.0000000000000000e+00 7.2187634789794522e-02 -7.7116806906076889e+01 -1.5841321469674284e+02 0 0 0
271 11 2 0.0000000000000000e+00 -5.7278244727654226e+01 -6.6708743162127817e+01 -1.6354029890307552e+02 0 0 0
1830 74 2 0.0000000000000000e+00 -4.2252890601176979e+01 -6.7069618928963621e+01 -1.6196222651916028e+02 0 0 0
1829 74 2 0.0000000000000000e+00 -3.3321985107670351e+01 -6.6147850694510936e+01 -1.6589990561114416e+02 0 0 0
1850 74 1 0.0000000000000000e+00 -6.1905480319553714e+00 -5.5741688587820512e+01 -1.6704216194677875e+02 0 0 0
4453 179 4 0.0000000000000000e+00 -5.3540676870216295e+01 -4.1063956426133707e+01 -1.6398401553698019e+02 0 0 0
273 11 2 0.0000000000000000e+00 -5.9496748463668297e+01 -5.0372620732980373e+01 -1.5640347124997584e+02 0 0 0
4776 192 3 0.0000000000000000e+00 -6.2979337239359712e+00 -4.5134094373367482e+01 -1.6335870959904352e+02 0 0 0
53 3 2 0.0000000000000000e+00 2.8844205391615674e+01 -4.3442357057950630e+01 -1.6412202629431471e+02 0 0 0
2069 83 1 0.0000000000000000e+00 -7.1787785392878973e+01 -3.1851044614010060e+01 -1.6696853530615530e+02 0 0 0
3063 123 3 0.0000000000000000e+00 -6.8656171480497349e+01 -2.8809780379574470e+01 -1.5639588468395908e+02 0 0 0
2068 83 2 0.0000000000000000e+00 -6.4390797869759595e+01 -3.6925620397495770e+01 -1.6157477635901176e+02 0 0 0
2067 83 2 0.0000000000000000e+00 -5.6763313107928077e+01 -3.3945706946387901e+01 -1.5594014854790481e+02 0 0 0
4464 179 4 0.0000000000000000e+00 -4.1338974868575782e+01 -3.0355410015597887e+01 -1.5929717687056845e+02 0 0 0
1454 59 2 0.0000000000000000e+00 -2.3888565405840254e+01 -3.0471231759480780e+01 -1.6283116385728545e+02 0 0 0
4777 192 4 0.0000000000000000e+00 -6.3596870754075530e-01 -3.7758305767978548e+01 -1.6048395716520639e+02 0 0 0
4874 195 4 0.0000000000000000e+00 1.8951952437614029e+01 -2.7384242504929599e+01 -1.6352334859412107e+02 0 0 0
52 3 2 0.0000000000000000e+00 2.0351484680582743e+01 -3.7888310224714438e+01 -1.6705613645352668e+02 0 0 0
4873 195 4 0.0000000000000000e+00 2.1678427087768352e+01 -3.3312511339184560e+01 -1.5593273469393728e+02 0 0 0
2876 116 3 0.0000000000000000e+00 -1.0563868077945025e+02 -1.9463142929999901e+01 -1.6010416087165953e+02 0 0 0
2075 83 1 0.0000000000000000e+00 -1.0406746641770160e+02 -1.3460018506018223e+01 -1.6903804253594782e+02 0 0 0
3061 123 4 0.0000000000000000e+00 -5.9953648207516927e+01 -1.5373941651546724e+01 -1.6660795714914173e+02 0 0 0
3062 123 4 0.0000000000000000e+00 -6.3361127486830661e+01 -2.4786467876861053e+01 -1.6444395745939002e+02 0 0 0
3409 137 4 0.0000000000000000e+00 -4.2186047609745358e+01 -1.1826693692505859e+01 -1.6135473947877637e+02 0 0 0
4465 179 4 0.0000000000000000e+00 -3.8622195869450266e+01 -2.2210067694901838e+01 -1.6486426424444440e+02 0 0 0
1453 59 2 0.0000000000000000e+00 -2.9245852381472996e+01 -2.2341606302470964e+01 -1.6323402076392608e+02 0 0 0
1452 59 2 0.0000000000000000e+00 -2.8811957474027150e+01 -1.2526620821963558e+01 -1.6501339067590294e+02 0 0 0
2242 90 2 0.0000000000000000e+00 -1.7096166390774027e+01 -1.7240082700980707e+01 -1.6159471686522141e+02 0 0 0
2877 116 4 0.0000000000000000e+00 -1.0201102394487262e+02 -1.0263612614593892e+01 -1.5825658410201930e+02 0 0 0
1451 59 1 0.0000000000000000e+00 -2.9168087999697100e+01 -5.9621778099587361e+00 -1.5770488713305650e+02 0 0 0
409 17 2 0.0000000000000000e+00 6.9239040751882119e-01 -2.8819083442318809e+00 -1.5816182421955489e+02 0 0 0
4478 180 4 0.0000000000000000e+00 -9.8792432881023672e+01 9.8997791212959321e+00 -1.6792485000561740e+02 0 0 0
4476 180 3 0.0000000000000000e+00 -1.0699327105084920e+02 1.5642407767480309e+01 -1.6784245524574433e+02 0 0 0
4479 180 4 0.0000000000000000e+00 -9.0362213342661505e+01 5.9377235240440527e+00 -1.6350474925271791e+02 0 0 0
2015 81 2 0.0000000000000000e+00 -8.0861025134458686e+01 1.5276689804731017e+01 -1.6426461246108551e+02 0 0 0
4480 180 4 0.0000000000000000e+00 -8.3695904007969617e+01 8.7147181681018022e+00 -1.5671395639585148e+02 0 0 0
2016 81 2 0.0000000000000000e+00 -7.0965649621247124e+01 1.1669277565800751e+01 -1.6519157110506160e+02 0 0 0
2017 81 2 0.0000000000000000e+00 -6.2468089215972419e+01 7.2601201148279868e+00 -1.6240570609879470e+02 0 0 0
2018 81 2 0.0000000000000000e+00 -5.4241900548934346e+01 1.1820238346751228e+01 -1.6467899102356591e+02 0 0 0
2019 81 1 0.0000000000000000e+00 -4.4589875231945051e+01 1.3418911241485398e+01 -1.6733257380860377e+02 0 0 0
1058 43 2 0.0000000000000000e+00 2.6761958828144561e+00 1.3128713309761865e+01 -1.5663098450091195e+02 0 0 0
1057 43 1 0.0000000000000000e+00 -2.8706044283025416e+00 1.6336145583237396e+01 -1.6423216308861114e+02 0 0 0
408 17 2 0.0000000000000000e+00 5.0809348246236858e+00 3.7525280963004111e+00 -1.6456314800675253e+02 0 0 0
4376 176 3 0.0000000000000000e+00 -5.5679782678120013e+01 -1.0265653460936890e+02 -1.4403759331978804e+02 0 0 0
1846 74 2 0.0000000000000000e+00 3.0891782158722187e+00 -8.2797334850010259e+01 -1.5089221027895599e+02 0 0 0
1832 74 1 0.0000000000000000e+00 -4.3747508390679577e+01 -6.8844006955690290e+01 -1.4302083707742716e+02 0 0 0
268 11 2 0.0000000000000000e+00 -3.6293865771713776e+01 -7.4720438774915323e+01 -1.5413326340284604e+02 0 0 0
267 11 2 0.0000000000000000e+00 -3.3418960124185880e+01 -6.9819472443440219e+01 -1.4529508827709779e+02 0 0 0
3270 131 4 0.0000000000000000e+00 -2.1923210557650741e+01 -8.1545732574496881e+01 -1.5471591394278491e+02 0 0 0
3269 131 3 0.0000000000000000e+00 -1.8055216223720361e+01 -7.4896514107188821e+01 -1.4855504189139594e+02 0 0 0
1826 74 1 0.0000000000000000e+00 -8.2875770916662876e+00 -6.9720057738545648e+01 -1.5127559510512094e+02 0 0 0
272 11 2 0.0000000000000000e+00 -5.7568944835240835e+01 -6.0617075749313031e+01 -1.5560590186854844e+02 0 0 0
1831 74 2 0.0000000000000000e+00 -4.5533827076987741e+01 -6.6451398461730093e+01 -1.5258249382517627e+02 0 0 0
4456 179 4 0.0000000000000000e+00 -3.9696359974356085e+01 -5.7721630706757928e+01 -1.4737454040961001e+02 0 0 0
274 11 2 0.0000000000000000e+00 -6.4835522017906442e+01 -4.3686644623508251e+01 -1.5176716890244785e+02 0 0 0
4454 179 4 0.0000000000000000e+00 -5.0312671614106776e+01 -4.2728467028029463e+01 -1.5484254912071128e+02 0 0 0
4455 179 4 0.0000000000000000e+00 -4.5257958271678021e+01 -5.0213293464854893e+01 -1.5065739621013935e+02 0 0 0
4462 179 4 0.0000000000000000e+00 -3.3183120528955051e+01 -4.2713502197136094e+01 -1.4640363096492018e+02 0 0 0
4779 192 4 0.0000000000000000e+00 2.8089834997716912e+00 -4.2416122305029276e+01 -1.4416560694532231e+02 0 0 0
4778 192 4 0.0000000000000000e+00 5.1463183744292049e+00 -4.2841717494486410e+01 -1.5380702826493618e+02 0 0 0
275 11 1 0.0000000000000000e+00 -6.7964332602755434e+01 -3.5418236507040007e+01 -1.4729346338995592e+02 0 0 0
2066 83 2 0.0000000000000000e+00 -5.3181652802551845e+01 -2.7372693261714126e+01 -1.5019558372905345e+02 0 0 0
4463 179 3 0.0000000000000000e+00 -3.7125706522474431e+01 -3.5504903823837189e+01 -1.5219668004359943e+02 0 0 0
2244 90 1 0.0000000000000000e+00 -2.9690242414304695e+01 -2.7597947545467683e+01 -1.5309502164734874e+02 0 0 0
2245 90 2 0.0000000000000000e+00 -3.3013172672689663e+01 -2.9790718471467859e+01 -1.4418039885039616e+02 0 0 0
1455 59 2 0.0000000000000000e+00 -1.7358790533250183e+01 -3.3579112496448772e+01 -1.5563821253379800e+02 0 0 0
1456 59 2 0.0000000000000000e+00 -1.0122768843919429e+01 -3.6390973224384283e+01 -1.4913122998320483e+02 0 0 0
4872 195 4 0.0000000000000000e+00 2.2491364331490860e+01 -3.8405412190154053e+01 -1.4683420696038067e+02 0 0 0
454 19 2 0.0000000000000000e+00 2.4887755134663131e+01 -2.7974143606036701e+01 -1.4420634604421295e+02 0 0 0
3064 123 4 0.0000000000000000e+00 -7.2695313613932470e+01 -2.4416560349022536e+01 -1.4843387233302573e+02 0 0 0
2065 83 2 0.0000000000000000e+00 -5.7798352735394957e+01 -1.9145176223955392e+01 -1.4735062787959927e+02 0 0 0
3408 137 4 0.0000000000000000e+00 -3.4875544566748744e+01 -1.2804140548554736e+01 -1.5439668098128226e+02 0 0 0
3407 137 3 0.0000000000000000e+00 -2.5875753310428905e+01 -1.3074888416948603e+01 -1.4904038624760494e+02 0 0 0
2243 90 2 0.0000000000000000e+00 -2.1503242056294493e+01 -2.2207361070917834e+01 -1.5411430136987823e+02 0 0 0
3406 137 4 0.0000000000000000e+00 -1.5836428639522234e+01 -1.3603165833003592e+01 -1.4935104927757655e+02 0 0 0
3405 137 4 0.0000000000000000e+00 -8.5880376168943258e+00 -1.8974458625623008e+01 -1.5242331612152580e+02 0 0 0
3404 137 4 0.0000000000000000e+00 -5.5064027160751194e-01 -2.2009765717499835e+01 -1.4713733398689976e+02 0 0 0
3403 137 4 0.0000000000000000e+00 8.6365875785087507e+00 -1.7837694666735977e+01 -1.4739801765109499e+02 0 0 0
3402 137 4 0.0000000000000000e+00 1.8089321147934378e+01 -1.3625023596053635e+01 -1.4803885792134304e+02 0 0 0
456 19 2 0.0000000000000000e+00 2.5768872076019719e+01 -1.2392421956186613e+01 -1.5378730034292332e+02 0 0 0
455 19 2 0.0000000000000000e+00 2.2954923712115693e+01 -2.2019393980951723e+01 -1.5218608790669700e+02 0 0 0
3401 137 3 0.0000000000000000e+00 2.6597443361040096e+01 -1.5566732927957212e+01 -1.4337229994967802e+02 0 0 0
2878 116 4 0.0000000000000000e+00 -9.8264289411484881e+01 -1.9734520978985939e+00 -1.5467811070928744e+02 0 0 0
2064 83 2 0.0000000000000000e+00 -6.2464788731153909e+01 -1.1528779172134556e+01 -1.4285241509338672e+02 0 0 0
410 17 2 0.0000000000000000e+00 2.7437945884905770e+00 -7.0418948834460542e+00 -1.4889023106922636e+02 0 0 0
2011 81 2 0.0000000000000000e+00 -1.1463898421036943e+02 1.6295914111217183e+01 -1.4987992033630664e+02 0 0 0
2879 116 4 0.0000000000000000e+00 -9.4622452582571668e+01 2.4447820020387803e+00 -1.4569069021607814e+02 0 0 0
2881 116 4 0.0000000000000000e+00 -8.9576766855762898e+01 1.4383414034531057e+01 -1.4248049528516583e+02 0 0 0
4481 180 4 0.0000000000000000e+00 -7.6413406823511409e+01 6.7263994947820178e+00 -1.5033333756102098e+02 0 0 0
4482 180 3 0.0000000000000000e+00 -6.7255456134750020e+01 4.3397905113096558e+00 -1.4675419203254290e+02 0 0 0
4483 180 4 0.0000000000000000e+00 -5.8939748241354593e+01 9.1328126435699968e+00 -1.4766168160506692e+02 0 0 0
4484 180 4 0.0000000000000000e+00 -5.0147281690152539e+01 1.0906362800663587e+01 -1.4394996018662920e+02 0 0 0
2998 120 4 0.0000000000000000e+00 -3.0293128649020758e+01 1.3401905566504640e+01 -1.4449253907557127e+02 0 0 0
661 27 2 0.0000000000000000e+00 1.0726307663122688e+01 1.2902806140187288e+01 -1.4440172434520630e+02 0 0 0
1059 43 2 0.0000000000000000e+00 1.2082877053517922e+01 1.0444752191324618e+01 -1.5403070670072256e+02 0 0 0
1060 43 2 0.0000000000000000e+00 2.0325606652170883e+01 8.1341963688607510e+00 -1.4919202642119109e+02 0 0 0
1061 43 2 0.0000000000000000e+00 2.9449313640559303e+01 9.2515115868214508e+00 -1.4479883079492251e+02 0 0 0
2396 96 2 0.0000000000000000e+00 -7.9689611018561308e+01 -1.1457122379051735e+02 -1.3321919804854312e+02 0 0 0
2395 96 2 0.0000000000000000e+00 -7.2349596110526164e+01 -1.0990534600268199e+02 -1.3983749055903985e+02 0 0 0
4156 167 4 0.0000000000000000e+00 -4.4754300536970817e+01 -1.2113510217506062e+02 -1.2930027290678541e+02 0 0 0
4154 167 4 0.0000000000000000e+00 -2.7783947343115592e+01 -1.1279740157662968e+02 -1.3089392283549330e+02 0 0 0
4155 167 4 0.0000000000000000e+00 -3.6294059173177921e+01 -1.1725628483609003e+02 -1.3289740398023847e+02 0 0 0
2393 96 2 0.0000000000000000e+00 -7.4471089519151775e+01 -9.5747773279622947e+01 -1.4041429779520988e+02 0 0 0
2394 96 1 0.0000000000000000e+00 -6.5719520391481097e+01 -1.0132260435768384e+02 -1.4062748268847298e+02 0 0 0
4377 176 4 0.0000000000000000e+00 -5.5989560710254011e+01 -9.5883359799175494e+01 -1.3652772855778849e+02 0 0 0
4378 176 4 0.0000000000000000e+00 -5.0652544757111919e+01 -9.9521348933897428e+01 -1.2893949320610304e+02 0 0 0
4153 167 4 0.0000000000000000e+00 -2.1647663032611941e+01 -1.0519498705257755e+02 -1.3202554325612209e+02 0 0 0
2391 96 2 0.0000000000000000e+00 -8.7058648785476876e+01 -8.5981202741987744e+01 -1.3491809804937202e+02 0 0 0
2392 96 2 0.0000000000000000e+00 -7.7642910647994000e+01 -8.8787353225144983e+01 -1.3391924240290186e+02 0 0 0
1844 74 1 0.0000000000000000e+00 -3.6389185396205312e+00 -8.2314617161898695e+01 -1.3568631685930467e+02 0 0 0
1845 74 2 0.0000000000000000e+00 4.1862878638216197e+00 -8.4045309460341727e+01 -1.4145284382038011e+02 0 0 0
1833 74 2 0.0000000000000000e+00 -4.0615580176814674e+01 -7.6229513389813107e+01 -1.3698647253192630e+02 0 0 0
3268 131 4 0.0000000000000000e+00 -1.5362931701065001e+01 -6.9024098509659481e+01 -1.4110559199278953e+02 0 0 0
3267 131 4 0.0000000000000000e+00 -8.1815589517862790e+00 -7.0578284109649459e+01 -1.3444591840483992e+02 0 0 0
2783 112 4 0.0000000000000000e+00 3.2025734881896902e+01 -7.1900304121037721e+01 -1.3510414378058027e+02 0 0 0
4457 179 3 0.0000000000000000e+00 -4.2708837455920637e+01 -5.9054537538118169e+01 -1.3769683479994933e+02 0 0 0
4458 179 4 0.0000000000000000e+00 -5.1310992756287391e+01 -5.7479278274589127e+01 -1.3232459356719238e+02 0 0 0
266 11 2 0.0000000000000000e+00 -3.6083418773211456e+01 -6.7337441708788333e+01 -1.3600538831519884e+02 0 0 0
2784 112 4 0.0000000000000000e+00 2.8485652920756312e+01 -6.5442738396616974e+01 -1.4141579340299916e+02 0 0 0
4460 179 4 0.0000000000000000e+00 -4.1251776338986190e+01 -4.9746724243979870e+01 -1.2973017013570043e+02 0 0 0
4461 179 4 0.0000000000000000e+00 -3.5602433658798923e+01 -4.6996354061850326e+01 -1.3746930043252735e+02 0 0 0
4781 192 4 0.0000000000000000e+00 -1.3516342525863672e+01 -4.7465687010607304e+01 -1.3719878343284211e+02 0 0 0
4780 192 4 0.0000000000000000e+00 -3.9289890683927764e+00 -4.8494162580591649e+01 -1.3988926390193456e+02 0 0 0
3261 131 4 0.0000000000000000e+00 1.7892628967352831e+01 -4.1394417840644856e+01 -1.3043786708169554e+02 0 0 0
4871 195 4 0.0000000000000000e+00 2.5501245511489149e+01 -4.0109559679262922e+01 -1.3744656220231124e+02 0 0 0
4870 195 4 0.0000000000000000e+00 2.7537908598936333e+01 -4.5165862237728760e+01 -1.2921737871281249e+02 0 0 0
3153 127 4 0.0000000000000000e+00 -1.0737071046626674e+02 -2.7123664992175698e+01 -1.3290840891517783e+02 0 0 0
3066 123 4 0.0000000000000000e+00 -6.3193311963430908e+01 -3.0972944866453069e+01 -1.3268541304726983e+02 0 0 0
3065 123 4 0.0000000000000000e+00 -6.6000544574999964e+01 -2.7615614524732045e+01 -1.4153315339262738e+02 0 0 0
2247 90 2 0.0000000000000000e+00 -4.6619629003955737e+01 -2.9327822488216853e+01 -1.3314609168309144e+02 0 0 0
2246 90 2 0.0000000000000000e+00 -3.7163779210147496e+01 -2.8187310985500712e+01 -1.3517175153754349e+02 0 0 0
4782 192 3 0.0000000000000000e+00 -1.7693655726636710e+01 -3.8442085496441457e+01 -1.3475528011497826e+02 0 0 0
4783 192 4 0.0000000000000000e+00 -1.7882079326557712e+01 -2.8280592456500148e+01 -1.3572911225421683e+02 0 0 0
1457 59 1 0.0000000000000000e+00 -7.0009862681415633e+00 -3.7662824104289193e+01 -1.3999883860540362e+02 0 0 0
1458 59 2 0.0000000000000000e+00 -2.5575910952186303e+00 -3.5516578866251002e+01 -1.3137936306629393e+02 0 0 0
453 19 2 0.0000000000000000e+00 1.9199103939260727e+01 -2.8905130730225320e+01 -1.3635462823920582e+02 0 0 0
414 17 2 0.0000000000000000e+00 3.0654449974582317e+01 -2.6464429739300204e+01 -1.3304416640858457e+02 0 0 0
4784 192 4 0.0000000000000000e+00 -9.5183508292238717e+00 -2.2863172948621084e+01 -1.3788028900471502e+02 0 0 0
4785 192 4 0.0000000000000000e+00 -6.1965401893609355e+00 -1.7790193675776887e+01 -1.2954067944752683e+02 0 0 0
412 17 2 0.0000000000000000e+00 1.7585860838836215e+01 -1.3114167080302751e+01 -1.3771282118386429e+02 0 0 0
413 17 1 0.0000000000000000e+00 2.4143785900352640e+01 -1.8806090286771859e+01 -1.3393199121176340e+02 0 0 0
2173 87 2 0.0000000000000000e+00 -1.0768314635541039e+02 -7.0617045114022030e+00 -1.3769312128444571e+02 0 0 0
2063 83 1 0.0000000000000000e+00 -6.2087947960667393e+01 -2.1773563683655457e+00 -1.3973463228122787e+02 0 0 0
2250 90 1 0.0000000000000000e+00 -4.7023474940246906e+01 -4.7948369352382575e-01 -1.2922311885899768e+02 0 0 0
3177 128 4 0.0000000000000000e+00 -1.0559324342697179e+01 -3.1255085199864561e+00 -1.3233616659690929e+02 0 0 0
411 17 2 0.0000000000000000e+00 1.0881317511086747e+01 -7.4221897252852189e+00 -1.4219506599009657e+02 0 0 0
4787 192 4 0.0000000000000000e+00 9.4359642981298002e+00 -8.5185373882091806e+00 -1.3028666281129355e+02 0 0 0
4788 192 3 0.0000000000000000e+00 1.4579096515484448e+01 -1.8741015151369109e-01 -1.2896038353082304e+02 0 0 0
4789 192 4 0.0000000000000000e+00 2.4476265575806753e+01 1.6926908538913932e+00 -1.3178339546542793e+02 0 0 0
2174 87 2 0.0000000000000000e+00 -1.1071284488807957e+02 2.6917581985812071e+00 -1.3975776053361054e+02 0 0 0
2175 87 1 0.0000000000000000e+00 -1.1056268805211964e+02 1.0212229487288896e+01 -1.3305031756536334e+02 0 0 0
2880 116 4 0.0000000000000000e+00 -8.9594289629819755e+01 5.9425535256719231e+00 -1.3734838349540939e+02 0 0 0
2062 83 2 0.0000000000000000e+00 -6.5443733377559639e+01 6.6186979988726629e+00 -1.3502378241953460e+02 0 0 0
3178 128 4 0.0000000000000000e+00 -8.4171092801035492e+00 5.4778183624854817e+00 -1.3682860655226941e+02 0 0 0
3179 128 4 0.0000000000000000e+00 -4.0060546758318791e+00 1.3878377477760521e+01 -1.3884314210245117e+02 0 0 0
662 27 2 0.0000000000000000e+00 1.5357975676425125e+01 6.7606293621378555e+00 -1.3845988893487493e+02 0 0 0
663 27 1 0.0000000000000000e+00 1.8471863649988475e+01 9.9008573658234429e+00 -1.2939683950965215e+02 0 0 0
2399 96 2 0.0000000000000000e+00 -6.3104058373724691e+01 -1.2922167246776891e+02 -1.2224168073316692e+02 0 0 0
2400 96 1 0.0000000000000000e+00 -5.3413553011884545e+01 -1.2870437289402707e+02 -1.2346635735576541e+02 0 0 0
4157 167 3 0.0000000000000000e+00 -4.2827876740010403e+01 -1.2593328016771126e+02 -1.2039790286235772e+02 0 0 0
2398 96 2 0.0000000000000000e+00 -7.1354746683794076e+01 -1.2303210438228433e+02 -1.2162099781457840e+02 0 0 0
2397 96 2 0.0000000000000000e+00 -8.0219568575235257e+01 -1.2140051242393179e+02 -1.2608836951914093e+02 0 0 0
4379 176 4 0.0000000000000000e+00 -5.2967066635121341e+01 -1.0320234122760071e+02 -1.1946476546332791e+02 0 0 0
4152 167 4 0.0000000000000000e+00 -1.8128429942830259e+01 -9.6515850385537092e+01 -1.2802986816894628e+02 0 0 0
252 11 2 0.0000000000000000e+00 -2.0805664348171298e+01 -1.0254385718333120e+02 -1.1886079364366134e+02 0 0 0
1985 80 2 0.0000000000000000e+00 -1.3920970622242993e+02 -9.4282218329885865e+01 -1.1636888101889639e+02 0 0 0
1986 80 2 0.0000000000000000e+00 -1.4221070953260087e+02 -8.4316615147275783e+01 -1.1663920999869799e+02 0 0 0
2389 96 2 0.0000000000000000e+00 -9.6899920885838071e+01 -8.3880945301111794e+01 -1.1891454073058036e+02 0 0 0
2390 96 2 0.0000000000000000e+00 -9.4075082109852062e+01 -8.7174120324984997e+01 -1.2752428106239448e+02 0 0 0
251 11 1 0.0000000000000000e+00 -2.7227952312507732e+01 -9.5028856399498579e+01 -1.2298628408633284e+02 0 0 0
4151 167 3 0.0000000000000000e+00 -1.8635506708184618e+01 -8.7859968937753777e+01 -1.2327224291700244e+02 0 0 0
3526 142 3 0.0000000000000000e+00 3.4375029715129024e+00 -8.2319001045900094e+01 -1.2772466328306200e+02 0 0 0
1842 74 2 0.0000000000000000e+00 -9.8142079113499676e+00 -8.5929715541264301e+01 -1.1712399294562755e+02 0 0 0
1843 74 2 0.0000000000000000e+00 -6.9817236710000969e+00 -8.4254527133904418e+01 -1.2603827799950449e+02 0 0 0
3527 142 4 0.0000000000000000e+00 1.1098882224139857e+01 -8.7452045449772541e+01 -1.2375758554308251e+02 0 0 0
3528 142 4 0.0000000000000000e+00 1.7638450647623444e+01 -9.0006823489667426e+01 -1.1573910240479803e+02 0 0 0
3175 127 3 0.0000000000000000e+00 -1.0762161483820954e+02 -7.6020671307633961e+01 -1.1647664315511061e+02 0 0 0
1834 74 2 0.0000000000000000e+00 -3.6373046476129396e+01 -7.8509283064148050e+01 -1.2795362353070141e+02 0 0 0
1835 74 2 0.0000000000000000e+00 -2.9223472470943197e+01 -8.0668722473470595e+01 -1.2132850812956326e+02 0 0 0
3266 131 4 0.0000000000000000e+00 -8.4845389169387389e+00 -6.9781434817888751e+01 -1.2420600693893867e+02 0 0 0
3265 131 4 0.0000000000000000e+00 -4.4711563573228258e-01 -7.1631422844105089e+01 -1.1843298303723066e+02 0 0 0
1464 59 2 0.0000000000000000e+00 2.7343489294155720e+01 -6.9896173603597632e+01 -1.1599310952717269e+02 0 0 0
3172 127 4 0.0000000000000000e+00 -1.0250653535068946e+02 -5.8999950716473165e+01 -1.1688951094332225e+02 0 0 0
264 11 2 0.0000000000000000e+00 -3.5301409061218536e+01 -5.9758723810769723e+01 -1.1684611037626101e+02 0 0 0
265 11 2 0.0000000000000000e+00 -3.7417030363325530e+01 -6.2117322304475856e+01 -1.2692307954960607e+02 0 0 0
4574 183 4 0.0000000000000000e+00 -2.3472799442696211e+01 -6.6757189655807281e+01 -1.1779620614840768e+02 0 0 0
4573 183 4 0.0000000000000000e+00 -1.4886540287227261e+01 -6.2179013300231247e+01 -1.2031102872705877e+02 0 0 0
4572 183 4 0.0000000000000000e+00 -6.3691743342828895e+00 -5.6914628804933585e+01 -1.1932010299550517e+02 0 0 0
3264 131 4 0.0000000000000000e+00 7.4500307760111149e+00 -6.6043111160500786e+01 -1.2118964256794141e+02 0 0 0
3263 131 3 0.0000000000000000e+00 1.2918425565181538e+01 -6.0244717331222915e+01 -1.2707013905234406e+02 0 0 0
1462 59 2 0.0000000000000000e+00 1.1724708181042324e+01 -5.7133658013867418e+01 -1.1652952514311396e+02 0 0 0
1463 59 1 0.0000000000000000e+00 1.9007357477543390e+01 -6.4345984565693598e+01 -1.1858382523623305e+02 0 0 0
3171 127 4 0.0000000000000000e+00 -1.0837329070098400e+02 -5.1055441905262526e+01 -1.1679905588882934e+02 0 0 0
4459 179 4 0.0000000000000000e+00 -4.9666420607987327e+01 -5.1566841530039760e+01 -1.2387407159200832e+02 0 0 0
3262 131 4 0.0000000000000000e+00 1.4257204146699920e+01 -5.0440589644906680e+01 -1.2868125429805934e+02 0 0 0
1460 59 2 0.0000000000000000e+00 4.5927307063484237e+00 -3.9843113096995161e+01 -1.2491509614191729e+02 0 0 0
1461 59 2 0.0000000000000000e+00 8.0457778274548506e+00 -4.8233386652609560e+01 -1.1976782185197014e+02 0 0 0
4869 195 3 0.0000000000000000e+00 2.2958699787562235e+01 -4.3552150319972846e+01 -1.2077123178300192e+02 0 0 0
3154 127 4 0.0000000000000000e+00 -9.9863612386195413e+01 -2.7526090080874368e+01 -1.2634787872163643e+02 0 0 0
584 24 2 0.0000000000000000e+00 -7.9124593693561636e+01 -2.6597162559662035e+01 -1.1613956408231225e+02 0 0 0
3067 123 4 0.0000000000000000e+00 -5.8410916730444384e+01 -3.4811682917851215e+01 -1.2412845497844421e+02 0 0 0
3068 123 4 0.0000000000000000e+00 -5.1120749972197181e+01 -3.0768170251480463e+01 -1.1873080164908566e+02 0 0 0
1459 59 2 0.0000000000000000e+00 4.5303824920638480e-01 -3.1037299357727775e+01 -1.2274099803218139e+02 0 0 0
452 19 2 0.0000000000000000e+00 1.3260111705063906e+01 -3.1817348774762273e+01 -1.2857842701360340e+02 0 0 0
451 19 1 0.0000000000000000e+00 1.3032123273172422e+01 -3.7546942709003112e+01 -1.2033346378927673e+02 0 0 0
3260 131 4 0.0000000000000000e+00 2.3125769087083494e+01 -3.3340585516938972e+01 -1.2715622775097951e+02 0 0 0
2376 96 1 0.0000000000000000e+00 -1.2797858459922767e+02 -2.5311343026986744e+01 -1.1785798889404639e+02 0 0 0
3152 127 4 0.0000000000000000e+00 -1.1335356753548749e+02 -2.1566965966400367e+01 -1.2678818253821501e+02 0 0 0
3151 127 3 0.0000000000000000e+00 -1.2146413585377610e+02 -1.7627514215931253e+01 -1.2240733200672854e+02 0 0 0
3155 127 4 0.0000000000000000e+00 -9.4930854879418305e+01 -2.1272541106877309e+01 -1.2039665691056227e+02 0 0 0
3156 127 4 0.0000000000000000e+00 -8.5267334292317614e+01 -1.9893959357907729e+01 -1.2105466278211824e+02 0 0 0
583 24 2 0.0000000000000000e+00 -6.9003384944995162e+01 -2.5112959610705754e+01 -1.1687930914335044e+02 0 0 0
2248 90 2 0.0000000000000000e+00 -4.6107519052397606e+01 -2.0237307569328884e+01 -1.2837318021237314e+02 0 0 0
4786 192 4 0.0000000000000000e+00 2.6066420397923609e+00 -1.4890606569334626e+01 -1.2682696423804188e+02 0 0 0
3259 131 4 0.0000000000000000e+00 2.8439847718350094e+01 -2.5310530508111611e+01 -1.2350623792524492e+02 0 0 0
2172 87 2 0.0000000000000000e+00 -1.0931406838481246e+02 -1.0515358976878113e+01 -1.2847798610659291e+02 0 0 0
2171 87 2 0.0000000000000000e+00 -1.0106869435109397e+02 -5.5730510874497030e+00 -1.2554625925943256e+02 0 0 0