LAMMPS data file via write_data, version 5 Jun 2019, timestep = 380000000

5000 atoms
4 atom types
5294 bonds
3 bond types
4600 angles
2 angle types

-2.5000000000000000e+02 2.5000000000000000e+02 xlo xhi
-2.5000000000000000e+02 2.5000000000000000e+02 ylo yhi
-2.5000000000000000e+02 2.5000000000000000e+02 zlo zhi

Masses

1 1000
2 1000
3 1000
4 1000

Pair Coeffs # lj/cut

1 0.18 10
2 0.18 10
3 0.18 10
4 0.18 10

Bond Coeffs # harmonic

1 3 10
2 3 10
3 3 11.22

Angle Coeffs # cosine

1 2
2 2

Atoms # full

2238 90 1 0.0000000000000000e+00 -4.6075726069839497e+01 -6.7113055328003108e+00 -1.9706747317054050e+02 0 0 0
4468 179 4 0.0000000000000000e+00 -5.3091079477285874e+01 -1.3987800578648676e+01 -1.8760261417958432e+02 0 0 0
4469 179 3 0.0000000000000000e+00 -5.7106333195913962e+01 -7.2756688171212236e+00 -1.9386363801640815e+02 0 0 0
2239 90 2 0.0000000000000000e+00 -3.9589379619500271e+01 -1.2657134270310236e+01 -1.9182019784577781e+02 0 0 0
2240 90 2 0.0000000000000000e+00 -3.1738769833846618e+01 -1.4862125057144089e+01 -1.8574986995338244e+02 0 0 0
3405 137 4 0.0000000000000000e+00 -1.7545847861041331e+01 -8.2839526787365703e+00 -1.9117246187179308e+02 0 0 0
3404 137 4 0.0000000000000000e+00 -7.9041448414132089e+00 -7.1348966635588882e+00 -1.8811792141193482e+02 0 0 0
1454 59 2 0.0000000000000000e+00 -3.8377992959176296e+01 -3.0556385741745924e+01 -1.6981927544966260e+02 0 0 0
4467 179 4 0.0000000000000000e+00 -5.5873719481828083e+01 -1.9002232779721879e+01 -1.7928823056024075e+02 0 0 0
4466 179 4 0.0000000000000000e+00 -5.5137621223668077e+01 -2.5187522292973114e+01 -1.7121776675047980e+02 0 0 0
1453 59 2 0.0000000000000000e+00 -4.3138056178730182e+01 -2.4003607879729277e+01 -1.7514038781131975e+02 0 0 0
2241 90 2 0.0000000000000000e+00 -2.7841181090349682e+01 -1.7778819692374380e+01 -1.7648598944819676e+02 0 0 0
2070 83 2 0.0000000000000000e+00 -7.3958730568431847e+01 -1.2800447487768430e+01 -1.7729892672072469e+02 0 0 0
2069 83 1 0.0000000000000000e+00 -7.9303011077716050e+01 -1.4523142873247439e+01 -1.6888025808812154e+02 0 0 0
2071 83 2 0.0000000000000000e+00 -7.1585272262017355e+01 -3.1653600057982283e+00 -1.7901355012785942e+02 0 0 0
1452 59 2 0.0000000000000000e+00 -4.6965219838875008e+01 -1.4637197515436892e+01 -1.7439561841529294e+02 0 0 0
1451 59 1 0.0000000000000000e+00 -4.0012957130885731e+01 -8.5790433871723124e+00 -1.7868225268681709e+02 0 0 0
408 17 2 0.0000000000000000e+00 -1.5266368467511306e+01 -1.0086821693981141e+01 -1.7614272913105822e+02 0 0 0
409 17 2 0.0000000000000000e+00 -7.3655001507708215e+00 -9.9246296266942409e+00 -1.6954329747188561e+02 0 0 0
4776 192 3 0.0000000000000000e+00 -4.5600268047207976e+01 -6.3198852642967680e+01 -1.5914482410096690e+02 0 0 0
271 11 2 0.0000000000000000e+00 -6.8581798005558639e+01 -4.6327066079136536e+01 -1.5535923944931486e+02 0 0 0
4778 192 4 0.0000000000000000e+00 -5.2576119440751363e+01 -4.7723842878743227e+01 -1.6542556687593733e+02 0 0 0
4777 192 4 0.0000000000000000e+00 -4.5511430427262489e+01 -5.4178917714662582e+01 -1.6370285679682570e+02 0 0 0
3268 131 4 0.0000000000000000e+00 -1.7966252823458223e+01 -5.6397751059754874e+01 -1.5547986301002703e+02 0 0 0
3267 131 4 0.0000000000000000e+00 -7.4867941528794040e+00 -5.4979653701458162e+01 -1.5652118457541837e+02 0 0 0
3064 123 4 0.0000000000000000e+00 -9.7729565948974553e+01 -3.7402105450523550e+01 -1.5543708933157038e+02 0 0 0
272 11 2 0.0000000000000000e+00 -7.3058474079305157e+01 -3.9303783059936279e+01 -1.6024436414946234e+02 0 0 0
273 11 2 0.0000000000000000e+00 -7.8695215653202325e+01 -3.1188084802963392e+01 -1.6072097876538723e+02 0 0 0
4779 192 4 0.0000000000000000e+00 -5.0264254258394395e+01 -4.3422254438132981e+01 -1.5713846538962358e+02 0 0 0
1455 59 2 0.0000000000000000e+00 -3.4874182748949899e+01 -3.8284124865524483e+01 -1.6447781345621982e+02 0 0 0
1456 59 2 0.0000000000000000e+00 -3.1893122495480419e+01 -3.6227069260559041e+01 -1.5513734214652678e+02 0 0 0
3062 123 4 0.0000000000000000e+00 -1.0408824395954061e+02 -1.8973316871910328e+01 -1.5650850385113094e+02 0 0 0
3063 123 3 0.0000000000000000e+00 -1.0256926837143251e+02 -2.9016118273476124e+01 -1.5469500205356402e+02 0 0 0
275 11 1 0.0000000000000000e+00 -9.5015004674455994e+01 -2.1540555005926027e+01 -1.5838326568488034e+02 0 0 0
274 11 2 0.0000000000000000e+00 -8.5656687746076642e+01 -2.4635731710462078e+01 -1.5738151133757873e+02 0 0 0
4465 179 4 0.0000000000000000e+00 -5.0096097368755856e+01 -2.8894629105612648e+01 -1.6350855637804537e+02 0 0 0
2244 90 1 0.0000000000000000e+00 -4.4123709524934632e+01 -1.9134493400264780e+01 -1.5569463258539665e+02 0 0 0
2243 90 2 0.0000000000000000e+00 -3.4135037106524152e+01 -2.2182047941609458e+01 -1.5798491901873717e+02 0 0 0
2242 90 2 0.0000000000000000e+00 -3.0259291972388578e+01 -1.8858148079100356e+01 -1.6681404112137093e+02 0 0 0
3061 123 4 0.0000000000000000e+00 -1.0299168187868027e+02 -9.6504889678476697e+00 -1.6103217880048075e+02 0 0 0
3060 123 4 0.0000000000000000e+00 -9.4274869076514634e+01 -6.4710974840456226e+00 -1.6444327250477269e+02 0 0 0
2068 83 2 0.0000000000000000e+00 -8.2080984121215835e+01 -1.1426290506895013e+01 -1.5966516356830769e+02 0 0 0
3059 123 4 0.0000000000000000e+00 -8.4896878800859795e+01 -3.0619446265555594e+00 -1.6427207037915588e+02 0 0 0
4451 179 3 0.0000000000000000e+00 -7.0854872463903220e+01 -7.4014236791187766e+00 -1.6788176809324935e+02 0 0 0
4452 179 4 0.0000000000000000e+00 -7.1900701880475523e+01 -1.1190214373761075e+01 -1.5842314410476476e+02 0 0 0
2246 90 2 0.0000000000000000e+00 -5.9273444685219047e+01 -7.1773585019454185e+00 -1.5572300582981339e+02 0 0 0
1850 74 1 0.0000000000000000e+00 -4.4892693520474971e+01 -5.8975869044547046e+01 -1.4839622540217968e+02 0 0 0
1849 74 2 0.0000000000000000e+00 -3.8222755263950290e+01 -6.0802459508527086e+01 -1.4139251772316931e+02 0 0 0
270 11 2 0.0000000000000000e+00 -6.3793465774345606e+01 -5.0487763469307829e+01 -1.4781452005343147e+02 0 0 0
4780 192 4 0.0000000000000000e+00 -4.5784222151790722e+01 -4.4890762420733594e+01 -1.4846342547456814e+02 0 0 0
3269 131 3 0.0000000000000000e+00 -2.3885206889458043e+01 -5.3090405779802133e+01 -1.4765100255027053e+02 0 0 0
3270 131 4 0.0000000000000000e+00 -2.2835635080737656e+01 -4.4686219150444401e+01 -1.4236616237093958e+02 0 0 0
3164 127 4 0.0000000000000000e+00 -1.3333151918277193e+02 -3.5530929651054947e+01 -1.4112991787618071e+02 0 0 0
3163 127 3 0.0000000000000000e+00 -1.2437355533348951e+02 -3.1659324634781708e+01 -1.4319480151801474e+02 0 0 0
3162 127 4 0.0000000000000000e+00 -1.1420767528290000e+02 -3.2890124622415712e+01 -1.4265452339332609e+02 0 0 0
3065 123 4 0.0000000000000000e+00 -9.5444206990903496e+01 -4.3134684444322581e+01 -1.4730865025224733e+02 0 0 0
4464 179 4 0.0000000000000000e+00 -4.5241822892915216e+01 -3.1886144681960026e+01 -1.5416729809081053e+02 0 0 0
4781 192 4 0.0000000000000000e+00 -3.8778766603896685e+01 -3.7709009145451311e+01 -1.4628669969564913e+02 0 0 0
1457 59 1 0.0000000000000000e+00 -2.3991153405346676e+01 -3.5657290896180861e+01 -1.5032167878375418e+02 0 0 0
4782 192 3 0.0000000000000000e+00 -3.1214070467539347e+01 -3.1685647747112800e+01 -1.4321108564300181e+02 0 0 0
1458 59 2 0.0000000000000000e+00 -1.8933187913063573e+01 -3.5057560755159884e+01 -1.4208025903402225e+02 0 0 0
2065 83 2 0.0000000000000000e+00 -1.0752411211107272e+02 -1.7864249095163160e+01 -1.4518362052540442e+02 0 0 0
4463 179 3 0.0000000000000000e+00 -4.7744831249892108e+01 -2.5102792246658630e+01 -1.4695771068626058e+02 0 0 0
4783 192 4 0.0000000000000000e+00 -2.8498121442445463e+01 -2.4443911845361150e+01 -1.4950743708835506e+02 0 0 0
2064 83 2 0.0000000000000000e+00 -1.1624047119342093e+02 -1.4572215468537143e+01 -1.4772837300477983e+02 0 0 0
2063 83 1 0.0000000000000000e+00 -1.1743640304115948e+02 -5.1675520258602790e+00 -1.4675224843800447e+02 0 0 0
4482 180 3 0.0000000000000000e+00 -1.0700185492323077e+02 -9.0064972583930949e+00 -1.4885261727787213e+02 0 0 0
4481 180 4 0.0000000000000000e+00 -1.0089876469119223e+02 -2.9856045581477293e+00 -1.5409874895042492e+02 0 0 0
2066 83 2 0.0000000000000000e+00 -9.7968158102496957e+01 -1.5824934909328546e+01 -1.4829577880283659e+02 0 0 0
2067 83 2 0.0000000000000000e+00 -8.8737052003180139e+01 -1.4080301533203938e+01 -1.5255821682134723e+02 0 0 0
4453 179 4 0.0000000000000000e+00 -6.6400431531724578e+01 -1.1616634936490749e+01 -1.4988138483456586e+02 0 0 0
2245 90 2 0.0000000000000000e+00 -5.0490758673924873e+01 -1.2165632884507808e+01 -1.5392206357009727e+02 0 0 0
4462 179 4 0.0000000000000000e+00 -4.5425801411296675e+01 -1.5804971154310659e+01 -1.4364057773396055e+02 0 0 0
4784 192 4 0.0000000000000000e+00 -2.8584919236384593e+01 -1.3998186435864906e+01 -1.4853272995510665e+02 0 0 0
4785 192 4 0.0000000000000000e+00 -2.5754631634814483e+01 -4.6939394505994674e+00 -1.4739724167358125e+02 0 0 0
267 11 2 0.0000000000000000e+00 -4.4778054268815914e+01 -6.3596410276736492e+01 -1.3346520250302640e+02 0 0 0
1848 74 2 0.0000000000000000e+00 -3.0161892067484949e+01 -6.1893485760142418e+01 -1.3605972338530216e+02 0 0 0
586 24 2 0.0000000000000000e+00 -1.4302682492884676e+02 -4.4846693434081388e+01 -1.3473487091574989e+02 0 0 0
585 24 2 0.0000000000000000e+00 -1.3355421119501466e+02 -4.8818069636556942e+01 -1.3589070687345571e+02 0 0 0
584 24 2 0.0000000000000000e+00 -1.2620330740828788e+02 -4.4873237067331644e+01 -1.3064164335264198e+02 0 0 0
3068 123 4 0.0000000000000000e+00 -1.0653780559962057e+02 -4.7170198388526401e+01 -1.2729885099400121e+02 0 0 0
3066 123 4 0.0000000000000000e+00 -9.3564335966736763e+01 -4.7152975633887962e+01 -1.3835046464002207e+02 0 0 0
3067 123 4 0.0000000000000000e+00 -9.8236715766877523e+01 -5.0815411068282749e+01 -1.3101869437130554e+02 0 0 0
269 11 1 0.0000000000000000e+00 -5.8219509594751869e+01 -5.0908953012625084e+01 -1.3879528364507294e+02 0 0 0
268 11 2 0.0000000000000000e+00 -4.9598766575481591e+01 -5.5117008282727433e+01 -1.3600546478877305e+02 0 0 0
1826 74 1 0.0000000000000000e+00 -2.1971450647956665e+01 -5.4604852352501382e+01 -1.3667031978062860e+02 0 0 0
1827 74 2 0.0000000000000000e+00 -1.7732966755798476e+01 -5.0816684947045772e+01 -1.2822385490912137e+02 0 0 0
3167 127 4 0.0000000000000000e+00 -1.6222235885251521e+02 -3.2638668239816170e+01 -1.3745540782433201e+02 0 0 0
3168 127 4 0.0000000000000000e+00 -1.6714536766705010e+02 -3.0181684388780244e+01 -1.2951798457032749e+02 0 0 0
3165 127 4 0.0000000000000000e+00 -1.4398272476038952e+02 -3.6057053569767660e+01 -1.4055662170269756e+02 0 0 0
587 24 2 0.0000000000000000e+00 -1.5053248680122016e+02 -4.3319353512697248e+01 -1.2893388860123147e+02 0 0 0
3166 127 4 0.0000000000000000e+00 -1.5347935786586012e+02 -3.6057468996907495e+01 -1.4030031391681564e+02 0 0 0
1675 67 1 0.0000000000000000e+00 -1.2788624416955219e+02 -3.0034891107518732e+01 -1.3232494717211259e+02 0 0 0
583 24 2 0.0000000000000000e+00 -1.1800299576629077e+02 -3.8240591091702427e+01 -1.3253880927472690e+02 0 0 0
3161 127 4 0.0000000000000000e+00 -1.0502690490507111e+02 -3.5942272201746363e+01 -1.3968348062597028e+02 0 0 0
582 24 1 0.0000000000000000e+00 -1.0786404356772495e+02 -3.7420977352930088e+01 -1.2940317387774567e+02 0 0 0
3275 131 3 0.0000000000000000e+00 -6.2440009753909088e+01 -4.0701606056603360e+01 -1.4078484948330589e+02 0 0 0
3274 131 4 0.0000000000000000e+00 -5.5397152863916880e+01 -4.2524788328830475e+01 -1.3342889544375146e+02 0 0 0
3273 131 4 0.0000000000000000e+00 -4.6584811201388710e+01 -3.7048200004673120e+01 -1.3498715166673827e+02 0 0 0
3272 131 4 0.0000000000000000e+00 -3.7329824016361073e+01 -4.1489096577043924e+01 -1.3711505134512302e+02 0 0 0
3271 131 4 0.0000000000000000e+00 -2.8202459512907719e+01 -4.0686923935560884e+01 -1.3472014974376137e+02 0 0 0
1459 59 2 0.0000000000000000e+00 -1.3699196856055707e+01 -4.0992956203051271e+01 -1.3628076301706423e+02 0 0 0
1674 67 2 0.0000000000000000e+00 -1.1914963470990985e+02 -2.6641052851316406e+01 -1.2820225939033730e+02 0 0 0
3160 127 4 0.0000000000000000e+00 -9.9292633440479776e+01 -2.8370055059755540e+01 -1.3533789937064907e+02 0 0 0
3159 127 4 0.0000000000000000e+00 -9.0217409495258579e+01 -2.5121032363971029e+01 -1.3421119625930893e+02 0 0 0
3158 127 4 0.0000000000000000e+00 -8.3368849583209027e+01 -1.9245026798193763e+01 -1.3056603297078325e+02 0 0 0
4455 179 4 0.0000000000000000e+00 -6.0054097094613283e+01 -2.0118910602121169e+01 -1.3359664344576009e+02 0 0 0
4483 180 4 0.0000000000000000e+00 -1.0691404154385486e+02 -1.0595517463033881e+01 -1.3973333739927529e+02 0 0 0
4484 180 4 0.0000000000000000e+00 -9.8095130771732158e+01 -1.2741012495309537e+01 -1.3537642176049221e+02 0 0 0
4485 180 4 0.0000000000000000e+00 -9.3044761186338008e+01 -5.6058454354124789e+00 -1.3070643544069642e+02 0 0 0
4454 179 4 0.0000000000000000e+00 -6.5089669402497563e+01 -1.4887720169761167e+01 -1.4056832000649467e+02 0 0 0
576 24 1 0.0000000000000000e+00 -6.2145198415433136e+01 -8.7737152289296976e+00 -1.2810422785274179e+02 0 0 0
4461 179 4 0.0000000000000000e+00 -5.0093671019986026e+01 -1.3662355048999814e+01 -1.3453107833349159e+02 0 0 0
3177 128 4 0.0000000000000000e+00 -4.9350949050385267e+01 -3.1528371169254998e+00 -1.3306859585391842e+02 0 0 0
3178 128 4 0.0000000000000000e+00 -3.9559749994594213e+01 -2.5960518349275890e+00 -1.3652948187655434e+02 0 0 0
2393 96 2 0.0000000000000000e+00 -1.0403601635309271e+02 -1.1253951829838883e+02 -1.1768884615281138e+02 0 0 0
2394 96 1 0.0000000000000000e+00 -9.6044014653593266e+01 -1.1730079066878770e+02 -1.1437112979876557e+02 0 0 0
2396 96 2 0.0000000000000000e+00 -7.7161969918881496e+01 -1.1589807644046616e+02 -1.1454132348488609e+02 0 0 0
4156 167 4 0.0000000000000000e+00 -4.7357305528480886e+01 -1.1249748147676141e+02 -1.1416090371915364e+02 0 0 0
2392 96 2 0.0000000000000000e+00 -1.1093712256591999e+02 -1.0614201417880548e+02 -1.2281621294548339e+02 0 0 0
4376 176 3 0.0000000000000000e+00 -8.7197576692165327e+01 -1.1029741652315609e+02 -1.1673813498325150e+02 0 0 0
4377 176 4 0.0000000000000000e+00 -9.5674814540348521e+01 -1.0631212954661841e+02 -1.1411757637232590e+02 0 0 0
2398 96 2 0.0000000000000000e+00 -6.0915779026732345e+01 -1.0950531700428415e+02 -1.2046460500649961e+02 0 0 0
2397 96 2 0.0000000000000000e+00 -6.8770949042298483e+01 -1.1072318583521911e+02 -1.1415603891870622e+02 0 0 0
2399 96 2 0.0000000000000000e+00 -5.4426064433619551e+01 -1.0197402327251979e+02 -1.2324147018089117e+02 0 0 0
2390 96 2 0.0000000000000000e+00 -1.1926263188809192e+02 -8.9196762540461421e+01 -1.1843196955717792e+02 0 0 0
2391 96 2 0.0000000000000000e+00 -1.1298252775525111e+02 -9.6645834306252908e+01 -1.2053629191591217e+02 0 0 0
2400 96 1 0.0000000000000000e+00 -5.1435869643035851e+01 -9.3391255006109120e+01 -1.1888938545025511e+02 0 0 0
3528 142 4 0.0000000000000000e+00 -2.2664292829965177e+01 -8.8863001652898632e+01 -1.1737203767375271e+02 0 0 0
2389 96 2 0.0000000000000000e+00 -1.2167049064404111e+02 -7.9841630251534085e+01 -1.1815988064816851e+02 0 0 0
1838 74 1 0.0000000000000000e+00 -6.2815020129035268e+01 -7.1870658131484078e+01 -1.1556517828543174e+02 0 0 0
3527 142 4 0.0000000000000000e+00 -2.1776313405669452e+01 -7.8613496061106332e+01 -1.1620438709215219e+02 0 0 0
3171 127 4 0.0000000000000000e+00 -1.7005949220770583e+02 -5.8745567326379003e+01 -1.2580395929509858e+02 0 0 0
3172 127 4 0.0000000000000000e+00 -1.6322222791918853e+02 -6.4164607478780113e+01 -1.2132295733202217e+02 0 0 0
3173 127 4 0.0000000000000000e+00 -1.5314894704029385e+02 -6.5006697384108961e+01 -1.1929734401020323e+02 0 0 0
3174 127 4 0.0000000000000000e+00 -1.4350861262421122e+02 -6.8066387810052788e+01 -1.2059344874329355e+02 0 0 0
3175 127 3 0.0000000000000000e+00 -1.3322783233128297e+02 -6.7353130735639851e+01 -1.2149812042893751e+02 0 0 0
2388 96 1 0.0000000000000000e+00 -1.2272849711983399e+02 -7.0117769436542815e+01 -1.1745356198399823e+02 0 0 0
2387 96 2 0.0000000000000000e+00 -1.2256558956685132e+02 -6.1075938138116257e+01 -1.2137638477102314e+02 0 0 0
1837 74 2 0.0000000000000000e+00 -6.1495452594076660e+01 -6.3499677668318299e+01 -1.2117319172185660e+02 0 0 0
266 11 2 0.0000000000000000e+00 -3.7902780899763592e+01 -6.6664412631194494e+01 -1.2720327561091415e+02 0 0 0
265 11 2 0.0000000000000000e+00 -3.4635200560910938e+01 -6.9927704600718130e+01 -1.1856880538777440e+02 0 0 0
1847 74 2 0.0000000000000000e+00 -2.5194980403067596e+01 -6.1720152838177498e+01 -1.2707990668215189e+02 0 0 0
1846 74 2 0.0000000000000000e+00 -2.1136267738369412e+01 -6.5960414351328851e+01 -1.1909981494197756e+02 0 0 0
3170 127 4 0.0000000000000000e+00 -1.6793021410313685e+02 -4.8898389969862905e+01 -1.2460073594137704e+02 0 0 0
588 24 1 0.0000000000000000e+00 -1.5641299658541794e+02 -4.4354269820251474e+01 -1.2051000003035848e+02 0 0 0
589 24 2 0.0000000000000000e+00 -1.5691679348392253e+02 -5.3481656949525224e+01 -1.1779840046143758e+02 0 0 0
2385 96 2 0.0000000000000000e+00 -1.3343798774974482e+02 -4.7854652957849055e+01 -1.1889140148788493e+02 0 0 0
2386 96 2 0.0000000000000000e+00 -1.2532799124111922e+02 -5.2320622926056764e+01 -1.2369010975397111e+02 0 0 0
1835 74 2 0.0000000000000000e+00 -6.0068699164317735e+01 -4.7279118048431407e+01 -1.1974395148410981e+02 0 0 0
1836 74 2 0.0000000000000000e+00 -5.7631456252489969e+01 -5.5176131048064242e+01 -1.2469305061787421e+02 0 0 0
3169 127 3 0.0000000000000000e+00 -1.6554380182545523e+02 -3.8741767883829112e+01 -1.2451521705793607e+02 0 0 0
2384 96 2 0.0000000000000000e+00 -1.3888774534499171e+02 -4.0659007492662163e+01 -1.1507881497636248e+02 0 0 0
3069 123 3 0.0000000000000000e+00 -1.1465092710980529e+02 -4.3063007414358850e+01 -1.2302054434109557e+02 0 0 0
3070 123 4 0.0000000000000000e+00 -1.2354741026558803e+02 -4.0711873332263458e+01 -1.1947744961124644e+02 0 0 0
1673 67 2 0.0000000000000000e+00 -1.1438663249113657e+02 -3.1776134229687589e+01 -1.2061546683725106e+02 0 0 0
581 24 2 0.0000000000000000e+00 -1.0087415833287108e+02 -3.3376591332328282e+01 -1.2402786193339102e+02 0 0 0
580 24 2 0.0000000000000000e+00 -9.1753140588961642e+01 -3.0759263854472387e+01 -1.2068214477010613e+02 0 0 0
579 24 2 0.0000000000000000e+00 -8.2381501644682217e+01 -3.0778829215517412e+01 -1.2387592328084366e+02 0 0 0
1834 74 2 0.0000000000000000e+00 -6.4358536453924017e+01 -3.8152112191297711e+01 -1.2044688167169186e+02 0 0 0
1830 74 2 0.0000000000000000e+00 -3.4962606431517905e+01 -3.0721743338755847e+01 -1.2341120409129621e+02 0 0 0
1829 74 2 0.0000000000000000e+00 -2.6286140858160035e+01 -3.6100179453012800e+01 -1.2270780407817109e+02 0 0 0
2794 112 3 0.0000000000000000e+00 -5.3492259755254947e+00 -2.9797581917692504e+01 -1.1810127145673354e+02 0 0 0
1828 74 2 0.0000000000000000e+00 -1.8238153213356565e+01 -4.1922631205801807e+01 -1.2379333674714935e+02 0 0 0
1168 47 2 0.0000000000000000e+00 -1.7735859017583181e+01 -3.2341534877692368e+01 -1.1596312205837775e+02 0 0 0
1672 67 2 0.0000000000000000e+00 -1.0640212151128587e+02 -2.9435013477680869e+01 -1.1442798618202541e+02 0 0 0
3157 127 3 0.0000000000000000e+00 -8.8334748784045445e+01 -1.9237658096533004e+01 -1.2176803472561961e+02 0 0 0
578 24 2 0.0000000000000000e+00 -7.4129311938023264e+01 -2.4996962580449040e+01 -1.2498259629548637e+02 0 0 0
4456 179 4 0.0000000000000000e+00 -6.1115568755747873e+01 -1.9903796827392245e+01 -1.2369397210758892e+02 0 0 0
1833 74 2 0.0000000000000000e+00 -6.4246820573655086e+01 -2.7998153741443350e+01 -1.1955674630309547e+02 0 0 0
1832 74 1 0.0000000000000000e+00 -5.4112485629593280e+01 -2.6780007069798181e+01 -1.2188720779996075e+02 0 0 0
4457 179 3 0.0000000000000000e+00 -5.5217481042713871e+01 -1.8571127659792104e+01 -1.1466120616192319e+02 0 0 0
1831 74 2 0.0000000000000000e+00 -4.4720171539642187e+01 -2.9157365265532292e+01 -1.2372309552369873e+02 0 0 0
949 38 2 0.0000000000000000e+00 -2.9236810165131846e+01 -2.0265167083536099e+01 -1.1951332423671023e+02 0 0 0
2160 87 2 0.0000000000000000e+00 -1.6953649689067948e+01 -1.6938715606405637e+01 -1.1932191309927268e+02 0 0 0
1992 80 2 0.0000000000000000e+00 -1.8493986907678863e+02 -4.7080351256722626e+00 -1.2026695026084508e+02 0 0 0
3156 127 4 0.0000000000000000e+00 -9.4228805462223804e+01 -1.2302824738602634e+01 -1.1712742334457235e+02 0 0 0
3155 127 4 0.0000000000000000e+00 -9.8907383365644378e+01 -4.1277570541171063e+00 -1.1415596072434387e+02 0 0 0
2168 87 2 0.0000000000000000e+00 -7.7460092281093594e+01 -5.8303511335867819e+00 -1.2126475476709422e+02 0 0 0
2169 87 1 0.0000000000000000e+00 -7.9584659266104225e+01 -1.4672247114529892e+01 -1.1689565764563771e+02 0 0 0
577 24 2 0.0000000000000000e+00 -6.9908574917863149e+01 -1.5837115436039033e+01 -1.2687469133881213e+02 0 0 0
2167 87 2 0.0000000000000000e+00 -6.8124013962545305e+01 -5.0471127484809708e+00 -1.1709307221529453e+02 0 0 0
4460 179 4 0.0000000000000000e+00 -5.3001117993408243e+01 -1.0794560938002274e+01 -1.2525128251686506e+02 0 0 0
4459 179 4 0.0000000000000000e+00 -4.6085941381397646e+01 -1.0090508404068727e+01 -1.1772515477547174e+02 0 0 0
950 38 1 0.0000000000000000e+00 -3.2827890486902106e+01 -1.1606583543952274e+01 -1.2362000857685932e+02 0 0 0
2161 87 2 0.0000000000000000e+00 -1.7416498227720272e+01 -6.9438484756943906e+00 -1.2120988337251758e+02 0 0 0
2808 113 4 0.0000000000000000e+00 -7.5056592843204593e+00 -2.2102563405470654e+00 -1.2583054342425609e+02 0 0 0
4153 167 4 0.0000000000000000e+00 -4.8491576832558692e+01 -1.3958834762018537e+02 -1.0507718512606341e+02 0 0 0
4154 167 4 0.0000000000000000e+00 -4.4457319581341487e+01 -1.2997452350621469e+02 -1.0765146094842639e+02 0 0 0
2395 96 2 0.0000000000000000e+00 -8.6056807431235043e+01 -1.1836416870045326e+02 -1.1229831817903785e+02 0 0 0
4155 167 4 0.0000000000000000e+00 -4.7906301556244784e+01 -1.2242606825075124e+02 -1.1354962651727166e+02 0 0 0
4157 167 3 0.0000000000000000e+00 -4.9049358816402595e+01 -1.0279431701984691e+02 -1.1270321287875149e+02 0 0 0
3530 142 4 0.0000000000000000e+00 -1.2863709123967146e+01 -1.0069608826721181e+02 -1.0456497402542462e+02 0 0 0
4378 176 4 0.0000000000000000e+00 -9.6333618335152849e+01 -9.6479576773127533e+01 -1.1235960695349094e+02 0 0 0
4379 176 4 0.0000000000000000e+00 -8.6975429586917144e+01 -9.4397962544743663e+01 -1.0969649341225875e+02 0 0 0
4380 176 4 0.0000000000000000e+00 -8.0485219931057813e+01 -8.7035008868471152e+01 -1.0673834035989621e+02 0 0 0
4159 167 4 0.0000000000000000e+00 -5.6989889551768869e+01 -9.0019252748935344e+01 -1.0444628543695876e+02 0 0 0
4158 167 4 0.0000000000000000e+00 -5.0642392935367980e+01 -9.7343520282269878e+01 -1.0347654585724884e+02 0 0 0
3529 142 4 0.0000000000000000e+00 -1.7214167365469343e+01 -9.5832171692034862e+01 -1.1230250979462524e+02 0 0 0
4381 176 4 0.0000000000000000e+00 -7.5782073519188444e+01 -7.9229406801098861e+01 -1.0268002827304281e+02 0 0 0
4382 176 3 0.0000000000000000e+00 -6.7045972084432094e+01 -7.6329222157590479e+01 -1.0547567834345283e+02 0 0 0
4383 176 4 0.0000000000000000e+00 -5.9058525157837245e+01 -7.4905645333153203e+01 -1.0021057974179632e+02 0 0 0
1839 74 2 0.0000000000000000e+00 -5.8829969701756717e+01 -8.0131953083832585e+01 -1.1091454138522430e+02 0 0 0
1840 74 2 0.0000000000000000e+00 -4.9534119628799743e+01 -8.2897192969486596e+01 -1.0759389547634065e+02 0 0 0
264 11 2 0.0000000000000000e+00 -3.9880944763091080e+01 -7.5072027907516727e+01 -1.1096543833148429e+02 0 0 0
3526 142 3 0.0000000000000000e+00 -2.8244802628102317e+01 -7.3910233703549949e+01 -1.1060176713123145e+02 0 0 0
1844 74 1 0.0000000000000000e+00 -1.9228196015276211e+01 -7.7562194206269098e+01 -1.0592444943367407e+02 0 0 0
1845 74 2 0.0000000000000000e+00 -1.6186243004679582e+01 -7.1399735920266963e+01 -1.1281524806091893e+02 0 0 0
590 24 2 0.0000000000000000e+00 -1.5245855036020521e+02 -5.8003645833771081e+01 -1.0970654744006447e+02 0 0 0
591 24 2 0.0000000000000000e+00 -1.4738359777111347e+02 -5.9455803876473716e+01 -1.0094963486179296e+02 0 0 0
263 11 1 0.0000000000000000e+00 -3.6610621246597312e+01 -6.9391451591764067e+01 -1.0331522323376647e+02 0 0 0
3082 124 3 0.0000000000000000e+00 -3.6192743485211473e+01 -5.8433958938910884e+01 -1.0173409142172410e+02 0 0 0
3083 124 4 0.0000000000000000e+00 -2.8867163379564712e+01 -5.2086884545680803e+01 -1.0507972854335088e+02 0 0 0
3084 124 4 0.0000000000000000e+00 -2.3631699846713239e+01 -4.4109994038841762e+01 -1.0432896347001294e+02 0 0 0
2383 96 2 0.0000000000000000e+00 -1.4218377774154732e+02 -3.1515684344269985e+01 -1.1160412866453824e+02 0 0 0
1982 80 1 0.0000000000000000e+00 -1.4748107671165764e+02 -3.6349582413861967e+01 -1.0532880549739386e+02 0 0 0
3071 123 4 0.0000000000000000e+00 -1.2939227733517976e+02 -3.9152207612881917e+01 -1.1134311772359922e+02 0 0 0
1981 80 2 0.0000000000000000e+00 -1.3887113445770314e+02 -3.8979703831331271e+01 -1.0060210280375941e+02 0 0 0
3072 123 4 0.0000000000000000e+00 -1.2299867540282941e+02 -4.0194137917902815e+01 -1.0351498988168457e+02 0 0 0
2722 109 4 0.0000000000000000e+00 -6.3709308031426517e+01 -3.1187830926811106e+01 -1.0650976740272381e+02 0 0 0
2724 109 4 0.0000000000000000e+00 -4.6614424397002708e+01 -2.9757495094099543e+01 -1.0503574922061998e+02 0 0 0
2725 109 3 0.0000000000000000e+00 -3.6976327687226814e+01 -2.9952772113168610e+01 -1.0798845855530685e+02 0 0 0
1169 47 1 0.0000000000000000e+00 -2.6330983737200036e+01 -3.0932188712430257e+01 -1.1157569584043019e+02 0 0 0
1166 47 2 0.0000000000000000e+00 -5.0344789864038333e+00 -3.5127673719805941e+01 -1.0065652953627752e+02 0 0 0
1167 47 2 0.0000000000000000e+00 -1.0976814492001681e+01 -3.4896191982237305e+01 -1.0911274240962769e+02 0 0 0
1990 80 2 0.0000000000000000e+00 -1.7397540243605155e+02 -1.7227260161278355e+01 -1.0992396761953661e+02 0 0 0
1984 80 2 0.0000000000000000e+00 -1.4775946640033757e+02 -2.0387151825684541e+01 -1.1242503141124239e+02 0 0 0
1983 80 2 0.0000000000000000e+00 -1.5268931027156427e+02 -2.8669685295748881e+01 -1.0983538154844641e+02 0 0 0
2382 96 1 0.0000000000000000e+00 -1.3414296922977542e+02 -2.5329360192860111e+01 -1.1291451798457986e+02 0 0 0
3994 160 3 0.0000000000000000e+00 -1.3692123747565546e+02 -1.8882057546780953e+01 -1.0425148884331577e+02 0 0 0
2381 96 2 0.0000000000000000e+00 -1.2748830429174303e+02 -1.8972811220520853e+01 -1.0961962812048945e+02 0 0 0
1671 67 2 0.0000000000000000e+00 -9.7101707920974519e+01 -2.7782330698039150e+01 -1.1096902379729157e+02 0 0 0
1670 67 2 0.0000000000000000e+00 -8.8343228484923415e+01 -2.5331821850913020e+01 -1.0738796007986579e+02 0 0 0
1669 67 1 0.0000000000000000e+00 -8.1114997759663922e+01 -1.9115759286503437e+01 -1.0424614431834394e+02 0 0 0
4876 196 3 0.0000000000000000e+00 -7.1754287651628403e+01 -1.6839105865001660e+01 -1.0858865921025331e+02 0 0 0
2723 109 4 0.0000000000000000e+00 -5.5424876018512713e+01 -2.5496838761569613e+01 -1.0733074690744962e+02 0 0 0
4458 179 4 0.0000000000000000e+00 -4.5567809464971546e+01 -1.8863045647107317e+01 -1.1188464807431272e+02 0 0 0
1170 47 2 0.0000000000000000e+00 -2.8452474687127552e+01 -2.8326736365372568e+01 -1.0183592747606168e+02 0 0 0
948 38 2 0.0000000000000000e+00 -3.1316518125329502e+01 -1.9663208787769214e+01 -1.0970105166339397e+02 0 0 0
2159 87 2 0.0000000000000000e+00 -1.9008917433233879e+01 -2.0140596475569335e+01 -1.1016703926142765e+02 0 0 0
2795 112 4 0.0000000000000000e+00 -8.7189211117907917e+00 -2.2098702142687365e+01 -1.1305039503889589e+02 0 0 0
2158 87 2 0.0000000000000000e+00 -1.2313794932690810e+01 -2.4313025241243544e+01 -1.0368503373740471e+02 0 0 0
1991 80 2 0.0000000000000000e+00 -1.8194610238830015e+02 -1.1184022747811145e+01 -1.1271551168926051e+02 0 0 0
1989 80 2 0.0000000000000000e+00 -1.6733285274378790e+02 -1.4316244175041511e+01 -1.0207845402610938e+02 0 0 0
1985 80 2 0.0000000000000000e+00 -1.4617985339410424e+02 -1.2017300318351243e+01 -1.0730729858231035e+02 0 0 0
1986 80 2 0.0000000000000000e+00 -1.4643759158213803e+02 -2.2655354926584117e+00 -1.0541169614994504e+02 0 0 0
3995 160 4 0.0000000000000000e+00 -1.3668080221553760e+02 -9.0808238473794312e+00 -1.0656581537469648e+02 0 0 0
2380 96 2 0.0000000000000000e+00 -1.2309022367068422e+02 -1.0925741059718208e+01 -1.0527865329053959e+02 0 0 0
2172 87 2 0.0000000000000000e+00 -9.9089278929409133e+01 -4.1729345459154530e+00 -1.0064093493097751e+02 0 0 0
2171 87 2 0.0000000000000000e+00 -9.0887903247800267e+01 -1.0014151830515724e+01 -1.0167030293133115e+02 0 0 0
2170 87 2 0.0000000000000000e+00 -8.7184044969175872e+01 -1.3566125058566433e+01 -1.1006990491253369e+02 0 0 0
4877 196 4 0.0000000000000000e+00 -6.3725384616134484e+01 -1.1895545546300609e+01 -1.0527007648884117e+02 0 0 0
4878 196 4 0.0000000000000000e+00 -5.3238719391411337e+01 -1.1902170007993638e+01 -1.0390239005344591e+02 0 0 0
4879 196 4 0.0000000000000000e+00 -4.6664728414824118e+01 -4.5944220308785795e+00 -1.0794751543573059e+02 0 0 0
4575 183 3 0.0000000000000000e+00 -3.4051069366124416e+01 -9.6287396182748708e+00 -1.1277760281012768e+02 0 0 0
947 38 2 0.0000000000000000e+00 -3.0321924387302744e+01 -1.4620490630735183e+01 -1.0078877508026113e+02 0 0 0
4574 183 4 0.0000000000000000e+00 -2.5523586150140375e+01 -3.8202985009712651e+00 -1.1247174121049751e+02 0 0 0
2796 112 4 0.0000000000000000e+00 -7.7513168031920907e+00 -1.3128653245212346e+01 -1.0894077158244438e+02 0 0 0
4572 183 4 0.0000000000000000e+00 -1.2043750549740665e+01 -6.1571804458853245e+00 -1.0111025887376242e+02 0 0 0
4573 183 4 0.0000000000000000e+00 -1.5706449362307742e+01 -3.5903463190413349e+00 -1.1009223166514522e+02 0 0 0
251 11 1 0.0000000000000000e+00 -5.1295607683309861e+01 -1.5304967398890426e+02 -8.8300949176019842e+01 0 0 0
252 11 2 0.0000000000000000e+00 -5.4376277771509521e+01 -1.4416986565763384e+02 -9.0736131847989682e+01 0 0 0
4152 167 4 0.0000000000000000e+00 -4.6643796459781292e+01 -1.4793206849964679e+02 -9.9563998528472311e+01 0 0 0
4151 167 3 0.0000000000000000e+00 -4.3631523614290877e+01 -1.4591051673814496e+02 -9.0370817288449288e+01 0 0 0