LAMMPS data file via write_data, version 5 Jun 2019, timestep = 400000000

5000 atoms
4 atom types
5294 bonds
3 bond types
4600 angles
2 angle types

-2.5000000000000000e+02 2.5000000000000000e+02 xlo xhi
-2.5000000000000000e+02 2.5000000000000000e+02 ylo yhi
-2.5000000000000000e+02 2.5000000000000000e+02 zlo zhi

Masses

1 1000
2 1000
3 1000
4 1000

Pair Coeffs # lj/cut

1 0.18 10
2 0.18 10
3 0.18 10
4 0.18 10

Bond Coeffs # harmonic

1 3 10
2 3 10
3 3 11.22

Angle Coeffs # cosine

1 2
2 2

Atoms # full

2069 83 1 0.0000000000000000e+00 -6.1617022388292256e+01 -1.0353271100553613e+01 -1.8322238345810780e+02 0 0 0
4452 179 4 0.0000000000000000e+00 -5.7157010443198359e+01 -2.2068886580134347e+01 -1.7030664504732039e+02 0 0 0
4464 179 4 0.0000000000000000e+00 -4.0082654543207667e+01 -2.0502412657842278e+01 -1.6943221761635644e+02 0 0 0
3061 123 4 0.0000000000000000e+00 -7.6717896903215731e+01 -7.5326273827073260e+00 -1.7050850842104961e+02 0 0 0
2068 83 2 0.0000000000000000e+00 -6.5165556518551696e+01 -1.3345487147616245e+01 -1.7443678157881718e+02 0 0 0
2067 83 2 0.0000000000000000e+00 -7.0432036368893918e+01 -1.9276134194183001e+01 -1.6874069606542454e+02 0 0 0
4451 179 3 0.0000000000000000e+00 -5.3964062540337480e+01 -1.4230517387957725e+01 -1.7498710155245638e+02 0 0 0
4465 179 4 0.0000000000000000e+00 -4.1587780991888756e+01 -1.2591192756791825e+01 -1.7612902753726647e+02 0 0 0
1454 59 2 0.0000000000000000e+00 -3.0486641987529520e+01 -1.4544554278708510e+01 -1.8156280073491484e+02 0 0 0
1456 59 2 0.0000000000000000e+00 -1.9382105685058434e+01 -1.7664661907075459e+01 -1.6948787571901491e+02 0 0 0
1455 59 2 0.0000000000000000e+00 -2.1172604000825579e+01 -1.4832564713993682e+01 -1.7902648348812212e+02 0 0 0
2242 90 2 0.0000000000000000e+00 -1.8907275614054871e+01 -7.4671315070011568e+00 -1.7013093382707132e+02 0 0 0
4777 192 4 0.0000000000000000e+00 -1.0007441473431770e+01 -6.3325902621473830e+01 -1.5887483266179947e+02 0 0 0
4779 192 4 0.0000000000000000e+00 -2.3104809779236842e+01 -5.2081554957900210e+01 -1.5774247658143264e+02 0 0 0
4778 192 4 0.0000000000000000e+00 -1.5259544466111640e+01 -5.5930626062506825e+01 -1.6250776473495802e+02 0 0 0
4454 179 4 0.0000000000000000e+00 -5.7398380758909127e+01 -3.5801572612365518e+01 -1.5803517798835466e+02 0 0 0
4461 179 4 0.0000000000000000e+00 -4.2420349779526141e+01 -3.9558397640916532e+01 -1.5549273867563139e+02 0 0 0
1458 59 2 0.0000000000000000e+00 -1.4563088172422136e+01 -3.4565519944269866e+01 -1.5910627560741705e+02 0 0 0
3063 123 3 0.0000000000000000e+00 -8.1302999117372039e+01 -2.0711085767496723e+01 -1.5575511915197910e+02 0 0 0
4453 179 4 0.0000000000000000e+00 -6.1149836578223095e+01 -2.9019268025849790e+01 -1.6380027652915280e+02 0 0 0
4462 179 4 0.0000000000000000e+00 -3.7724658171885970e+01 -3.2034057530431461e+01 -1.5984086908274080e+02 0 0 0
4463 179 3 0.0000000000000000e+00 -3.4978054486604790e+01 -2.2444270210409901e+01 -1.6038031243820117e+02 0 0 0
4781 192 4 0.0000000000000000e+00 -2.4354291150745784e+01 -3.2685069680602027e+01 -1.5641693204632614e+02 0 0 0
1457 59 1 0.0000000000000000e+00 -1.7108433354537119e+01 -2.5872668983074664e+01 -1.6342765770239859e+02 0 0 0
3062 123 4 0.0000000000000000e+00 -8.0378846294034815e+01 -1.4409973109376823e+01 -1.6416585002060182e+02 0 0 0
2066 83 2 0.0000000000000000e+00 -6.5691221745742325e+01 -1.8842179260812639e+01 -1.5973697736592450e+02 0 0 0
2245 90 2 0.0000000000000000e+00 -4.6195914929777864e+01 -1.0767085350134657e+01 -1.5958971631518091e+02 0 0 0
2244 90 1 0.0000000000000000e+00 -3.7777357405471442e+01 -1.2050528465208309e+01 -1.6494929131085081e+02 0 0 0
3406 137 4 0.0000000000000000e+00 -2.6121363705644285e+01 -8.8768388893767316e+00 -1.5525195282739969e+02 0 0 0
2243 90 2 0.0000000000000000e+00 -2.8045695002805580e+01 -1.0124895862374595e+01 -1.6804268253132051e+02 0 0 0
267 11 2 0.0000000000000000e+00 -5.9228522294972876e+01 -8.0537105105686564e+01 -1.4211481766875616e+02 0 0 0
3269 131 3 0.0000000000000000e+00 -1.8274180856554366e+01 -7.2705238846034902e+01 -1.4228075094500818e+02 0 0 0
270 11 2 0.0000000000000000e+00 -7.6191410631920732e+01 -5.9994944545328174e+01 -1.4514674382682904e+02 0 0 0
271 11 2 0.0000000000000000e+00 -8.0148982488743130e+01 -5.0674895312506941e+01 -1.4720091608204152e+02 0 0 0
272 11 2 0.0000000000000000e+00 -8.4186271254660369e+01 -4.2562384868367950e+01 -1.4239350970654078e+02 0 0 0
4455 179 4 0.0000000000000000e+00 -5.7381188360236109e+01 -3.7244274590527048e+01 -1.4834623000897989e+02 0 0 0
4460 179 4 0.0000000000000000e+00 -4.9383096051744722e+01 -4.5113148916276330e+01 -1.5015211151955177e+02 0 0 0
4780 192 4 0.0000000000000000e+00 -2.4402475755521412e+01 -4.2275956309849093e+01 -1.5492007435953531e+02 0 0 0
1459 59 2 0.0000000000000000e+00 -9.8557503852012331e+00 -3.9807589974044937e+01 -1.5213160911729008e+02 0 0 0
274 11 2 0.0000000000000000e+00 -8.7825303859659854e+01 -2.4690940030647223e+01 -1.4510583269989769e+02 0 0 0
273 11 2 0.0000000000000000e+00 -8.2070847077097952e+01 -3.2722734272933884e+01 -1.4253043139493468e+02 0 0 0
3064 123 4 0.0000000000000000e+00 -7.3061338848230847e+01 -2.2697973772627812e+01 -1.5153665270745248e+02 0 0 0
3065 123 4 0.0000000000000000e+00 -6.5148736095500894e+01 -2.4642643067380739e+01 -1.4606549417220194e+02 0 0 0
4782 192 3 0.0000000000000000e+00 -2.0785891209834869e+01 -2.3439593373945456e+01 -1.5371140724901542e+02 0 0 0
275 11 1 0.0000000000000000e+00 -8.9797733504997666e+01 -1.6567327685189973e+01 -1.5064059546957284e+02 0 0 0
2064 83 2 0.0000000000000000e+00 -8.0919659019380859e+01 -8.8609180287528631e+00 -1.5219901519431332e+02 0 0 0
2065 83 2 0.0000000000000000e+00 -7.1781377458912900e+01 -1.1943739165065368e+01 -1.5477636464440818e+02 0 0 0
2246 90 2 0.0000000000000000e+00 -4.9378992639576445e+01 -6.6677974672247293e+00 -1.5047940292410732e+02 0 0 0
3405 137 4 0.0000000000000000e+00 -1.7838833691741982e+01 -8.3607806255185064e+00 -1.5027995855418922e+02 0 0 0
4783 192 4 0.0000000000000000e+00 -1.4603526350076210e+01 -1.8733356773748493e+01 -1.4734023708441529e+02 0 0 0
3404 137 4 0.0000000000000000e+00 -8.3075267694765298e+00 -1.1663980255561292e+01 -1.5044329452985681e+02 0 0 0
1836 74 2 0.0000000000000000e+00 -8.1674377583361107e+01 -7.4834835625959741e+01 -1.3041865978907688e+02 0 0 0
266 11 2 0.0000000000000000e+00 -5.0198360104823550e+01 -8.2749264955950053e+01 -1.3991871234665388e+02 0 0 0
3080 124 4 0.0000000000000000e+00 -5.8589418192750408e+01 -7.6190809976362331e+01 -1.3067346362065112e+02 0 0 0
265 11 2 0.0000000000000000e+00 -4.4505616431586319e+01 -8.4297674360823521e+01 -1.3250343412382870e+02 0 0 0
1829 74 2 0.0000000000000000e+00 -4.1537610315861144e+01 -7.5956947365045892e+01 -1.3757939467082991e+02 0 0 0
1828 74 2 0.0000000000000000e+00 -3.3899158493700114e+01 -8.2002824896922178e+01 -1.3580012694005845e+02 0 0 0
1827 74 2 0.0000000000000000e+00 -2.4345714337611138e+01 -8.0656844783005170e+01 -1.3172574124751503e+02 0 0 0
3171 127 4 0.0000000000000000e+00 -1.0716213214520735e+02 -6.2960367461752845e+01 -1.2867868992571539e+02 0 0 0
269 11 1 0.0000000000000000e+00 -7.4364734436369915e+01 -6.8054748274993671e+01 -1.3992860375059959e+02 0 0 0
1835 74 2 0.0000000000000000e+00 -8.4594442254974751e+01 -6.5662433143016486e+01 -1.3451243058037090e+02 0 0 0
268 11 2 0.0000000000000000e+00 -6.6392024433102449e+01 -7.3946002353352910e+01 -1.4047946156853283e+02 0 0 0
3275 131 3 0.0000000000000000e+00 -6.8477026498213760e+01 -6.1448339722049049e+01 -1.3348535561208277e+02 0 0 0
1831 74 2 0.0000000000000000e+00 -5.4765256813122576e+01 -6.5413472677739094e+01 -1.2839314769034419e+02 0 0 0
1830 74 2 0.0000000000000000e+00 -4.9433429984424002e+01 -7.0421985367129452e+01 -1.3508746773893725e+02 0 0 0
3271 131 4 0.0000000000000000e+00 -3.4359330687700897e+01 -6.4259523387695666e+01 -1.3864340538357871e+02 0 0 0
3270 131 4 0.0000000000000000e+00 -2.7441899451035638e+01 -7.1589388424040337e+01 -1.3867293386607017e+02 0 0 0
1826 74 1 0.0000000000000000e+00 -1.9443990729892377e+01 -7.1874472177553500e+01 -1.3159351554749907e+02 0 0 0
3268 131 4 0.0000000000000000e+00 -8.6636850529022862e+00 -7.1355984326379897e+01 -1.3916096575893445e+02 0 0 0
587 24 2 0.0000000000000000e+00 -1.0234353232061892e+02 -5.0119810688733985e+01 -1.3098832616550612e+02 0 0 0
1834 74 2 0.0000000000000000e+00 -7.7044156205945498e+01 -6.0386852046034342e+01 -1.2958053442720401e+02 0 0 0
3274 131 4 0.0000000000000000e+00 -5.9711405960370499e+01 -5.8429833749660361e+01 -1.3766448073620947e+02 0 0 0
3273 131 4 0.0000000000000000e+00 -5.0775292537669216e+01 -5.5680555473985301e+01 -1.4138951194828314e+02 0 0 0
4458 179 4 0.0000000000000000e+00 -4.9149011828951330e+01 -5.1249931307374425e+01 -1.3215879854450003e+02 0 0 0
4459 179 4 0.0000000000000000e+00 -4.6495406381935950e+01 -4.7191478684562561e+01 -1.4041015532632892e+02 0 0 0
3272 131 4 0.0000000000000000e+00 -4.3403966657748832e+01 -5.9651237577419387e+01 -1.3544592269220837e+02 0 0 0
586 24 2 0.0000000000000000e+00 -9.4539149698036852e+01 -4.4070256222780621e+01 -1.2954461117228615e+02 0 0 0
4457 179 3 0.0000000000000000e+00 -5.7904338095459110e+01 -4.6794182127320546e+01 -1.3103132189595627e+02 0 0 0
4456 179 4 0.0000000000000000e+00 -5.8906374167503529e+01 -4.1350915017087218e+01 -1.3977513276493954e+02 0 0 0
3158 127 4 0.0000000000000000e+00 -9.2790597587544440e+01 -2.1288311112301301e+01 -1.2893829057044164e+02 0 0 0
3066 123 4 0.0000000000000000e+00 -6.3838356591897934e+01 -2.6050341518233200e+01 -1.3653514540693521e+02 0 0 0
2380 96 2 0.0000000000000000e+00 -1.0552691038250079e+02 -1.2787499561487458e+01 -1.2844947539012244e+02 0 0 0
3176 128 3 0.0000000000000000e+00 -7.0953379400182143e+01 -1.0386083942236732e+01 -1.2894550006735312e+02 0 0 0
576 24 1 0.0000000000000000e+00 -6.2553298111546411e+01 -1.6320934959237928e+01 -1.3353000144118667e+02 0 0 0
577 24 2 0.0000000000000000e+00 -5.3441773165511563e+01 -1.5861644646030376e+01 -1.2895830794939880e+02 0 0 0
4784 192 4 0.0000000000000000e+00 -9.9430696901184721e+00 -1.2972492471604077e+01 -1.4067668024425967e+02 0 0 0
4785 192 4 0.0000000000000000e+00 -6.1051485934021006e+00 -9.6041076783722286e+00 -1.3167807165372162e+02 0 0 0
1839 74 2 0.0000000000000000e+00 -6.1028905649031969e+01 -9.1062210119423113e+01 -1.1890011695784649e+02 0 0 0
1838 74 1 0.0000000000000000e+00 -6.9939367779696880e+01 -8.9532524280672263e+01 -1.2320982714858310e+02 0 0 0
1840 74 2 0.0000000000000000e+00 -5.1605751059528586e+01 -9.4160331144214268e+01 -1.2165211760581592e+02 0 0 0
1842 74 2 0.0000000000000000e+00 -3.2708721450932131e+01 -9.5554416691969053e+01 -1.2570555282677100e+02 0 0 0
1841 74 2 0.0000000000000000e+00 -4.2208409677360535e+01 -9.7976108349370875e+01 -1.2415652160030366e+02 0 0 0
1843 74 2 0.0000000000000000e+00 -2.4588750124090932e+01 -9.2281150909082143e+01 -1.2075405667973816e+02 0 0 0
1837 74 2 0.0000000000000000e+00 -7.5047998655957528e+01 -8.2736479737125819e+01 -1.2739772545957833e+02 0 0 0
3077 124 4 0.0000000000000000e+00 -8.1959215560841230e+01 -7.7457993867447712e+01 -1.2011724171380610e+02 0 0 0
3081 124 4 0.0000000000000000e+00 -5.2754515810963191e+01 -7.7521447893081216e+01 -1.2275339451199773e+02 0 0 0
264 11 2 0.0000000000000000e+00 -4.1195596469726894e+01 -7.9001578187196301e+01 -1.2491639648342525e+02 0 0 0
263 11 1 0.0000000000000000e+00 -4.3373934032226956e+01 -7.5386443550212775e+01 -1.1592548594772599e+02 0 0 0
3172 127 4 0.0000000000000000e+00 -1.0312404180251067e+02 -7.0075805092608377e+01 -1.2207368055578311e+02 0 0 0
3078 124 4 0.0000000000000000e+00 -7.3357376645205917e+01 -7.2028377191883322e+01 -1.2000126411890129e+02 0 0 0
3079 124 4 0.0000000000000000e+00 -6.6957684169945807e+01 -7.1657828011323147e+01 -1.2785372737807303e+02 0 0 0
3082 124 3 0.0000000000000000e+00 -5.3278394297663411e+01 -7.0418753162019385e+01 -1.1593216721354334e+02 0 0 0
1166 47 2 0.0000000000000000e+00 -4.5084718193016059e+01 -6.8382589675889363e+01 -1.2543214088940941e+02 0 0 0
1165 47 2 0.0000000000000000e+00 -3.5103608583949104e+01 -6.9220367863703984e+01 -1.2680327608150482e+02 0 0 0
1164 47 2 0.0000000000000000e+00 -2.9351187454183073e+01 -7.3712629918561561e+01 -1.2018773114732528e+02 0 0 0
3170 127 4 0.0000000000000000e+00 -1.1312577826256152e+02 -5.5347699324263090e+01 -1.2693686322467627e+02 0 0 0
588 24 1 0.0000000000000000e+00 -1.0306544563913511e+02 -5.2564096741826198e+01 -1.2083307037012388e+02 0 0 0
1833 74 2 0.0000000000000000e+00 -6.9740004196610997e+01 -5.4334411480307153e+01 -1.2452736815963380e+02 0 0 0
1832 74 1 0.0000000000000000e+00 -6.0119776710781949e+01 -5.7164084219951462e+01 -1.2737630650633187e+02 0 0 0
1167 47 2 0.0000000000000000e+00 -4.6521810952958738e+01 -5.8452898376321492e+01 -1.2307702969701117e+02 0 0 0
1168 47 2 0.0000000000000000e+00 -5.0170309502685484e+01 -5.0514090441759798e+01 -1.1873198290673415e+02 0 0 0
2155 87 2 0.0000000000000000e+00 -7.3652483744837367e+00 -4.7384973839154483e+01 -1.2624027756285076e+02 0 0 0
3166 127 4 0.0000000000000000e+00 -1.3213125318649304e+02 -4.2907597476149569e+01 -1.2011849125093559e+02 0 0 0
3167 127 4 0.0000000000000000e+00 -1.2320616648950966e+02 -3.7652661479371602e+01 -1.2143694682056338e+02 0 0 0
3168 127 4 0.0000000000000000e+00 -1.1337081762170457e+02 -3.5533136804932589e+01 -1.2304769268212362e+02 0 0 0
3169 127 3 0.0000000000000000e+00 -1.1170333965765911e+02 -4.6160758225496018e+01 -1.2264811930014992e+02 0 0 0
585 24 2 0.0000000000000000e+00 -8.6814484229964549e+01 -4.4006150119992107e+01 -1.2245481212827050e+02 0 0 0
584 24 2 0.0000000000000000e+00 -7.9350316148928798e+01 -4.0710387914822292e+01 -1.1649212453116218e+02 0 0 0
3087 124 4 0.0000000000000000e+00 -2.7393151122596290e+01 -3.7400595800966244e+01 -1.2165629980081250e+02 0 0 0
2156 87 2 0.0000000000000000e+00 -1.3358662108721640e+01 -4.1045270970216357e+01 -1.2157595251019092e+02 0 0 0
3160 127 4 0.0000000000000000e+00 -1.0758622519183916e+02 -2.5918337790918862e+01 -1.1747113286537835e+02 0 0 0
3159 127 4 0.0000000000000000e+00 -1.0063172030626474e+02 -2.5804860880948667e+01 -1.2573683158007660e+02 0 0 0
3994 160 3 0.0000000000000000e+00 -8.9967455376002249e+01 -2.7302300451809753e+01 -1.2061437904864547e+02 0 0 0
3993 160 4 0.0000000000000000e+00 -9.6897034148446721e+01 -3.3393442530735143e+01 -1.1744918854113708e+02 0 0 0
3995 160 4 0.0000000000000000e+00 -8.1323571743300135e+01 -2.5954648811590403e+01 -1.1561719594773561e+02 0 0 0
3067 123 4 0.0000000000000000e+00 -5.9274913698815638e+01 -2.8885221667726807e+01 -1.2760734078499917e+02 0 0 0
3068 123 4 0.0000000000000000e+00 -5.9005379154342421e+01 -3.1970578305374566e+01 -1.1767354365608462e+02 0 0 0
2158 87 2 0.0000000000000000e+00 -2.2007619133491701e+01 -2.3647992757098969e+01 -1.2131761406930444e+02 0 0 0
2157 87 1 0.0000000000000000e+00 -1.8786747726925995e+01 -3.2884027130227039e+01 -1.2305917557022633e+02 0 0 0
3088 124 3 0.0000000000000000e+00 -2.5993472153371748e+01 -3.0054649611375421e+01 -1.1473567799887550e+02 0 0 0
2379 96 2 0.0000000000000000e+00 -1.1342141493495164e+02 -7.8116893503136771e+00 -1.2510991786671117e+02 0 0 0
2381 96 2 0.0000000000000000e+00 -9.7779860082130682e+01 -1.5801303310467501e+01 -1.2247107767355385e+02 0 0 0
3157 127 3 0.0000000000000000e+00 -8.9729146983569521e+01 -1.2565039256205754e+01 -1.2591091243033630e+02 0 0 0
2169 87 1 0.0000000000000000e+00 -7.9729858746272470e+01 -1.4518227426351457e+01 -1.2046464240860458e+02 0 0 0
2168 87 2 0.0000000000000000e+00 -7.2482773003835632e+01 -7.9808468014229010e+00 -1.1921406649944669e+02 0 0 0
578 24 2 0.0000000000000000e+00 -5.1965979791987451e+01 -1.5584037002374389e+01 -1.1882327843200740e+02 0 0 0
2159 87 2 0.0000000000000000e+00 -2.2357907099324965e+01 -1.4309899657857581e+01 -1.1689353248035181e+02 0 0 0
2397 96 2 0.0000000000000000e+00 -1.0878795857799702e+02 -1.3403049501407065e+02 -1.0529274541642695e+02 0 0 0
2396 96 2 0.0000000000000000e+00 -1.0952758067537729e+02 -1.2422990453191092e+02 -1.0692469376162251e+02 0 0 0
4152 167 4 0.0000000000000000e+00 -7.2538051401099224e+01 -1.2035771999414422e+02 -1.0280591470307161e+02 0 0 0
2394 96 1 0.0000000000000000e+00 -1.1627292669079286e+02 -1.0485104024425716e+02 -1.0996414271762575e+02 0 0 0
2395 96 2 0.0000000000000000e+00 -1.1216048001803871e+02 -1.1402442267140594e+02 -1.0814656677474883e+02 0 0 0
4378 176 4 0.0000000000000000e+00 -9.2335179859290463e+01 -1.0265244623513469e+02 -1.0173951481942758e+02 0 0 0
4151 167 3 0.0000000000000000e+00 -7.1111485397762493e+01 -1.1414544921387223e+02 -1.1125001626666325e+02 0 0 0
251 11 1 0.0000000000000000e+00 -6.4347566241905270e+01 -1.0482670357665451e+02 -1.1134254532766781e+02 0 0 0
252 11 2 0.0000000000000000e+00 -6.1860334099075416e+01 -1.0411088150786753e+02 -1.0107584998370375e+02 0 0 0
3527 142 4 0.0000000000000000e+00 -2.2656943601206169e+01 -1.0672805389459673e+02 -1.0379070113301294e+02 0 0 0
2393 96 2 0.0000000000000000e+00 -1.2111455988262877e+02 -9.6521079307294343e+01 -1.0687873919559982e+02 0 0 0
4379 176 4 0.0000000000000000e+00 -9.4297225782588015e+01 -9.7640659812836248e+01 -1.0968167412335536e+02 0 0 0
4381 176 4 0.0000000000000000e+00 -7.6382337094012470e+01 -8.9888064244678986e+01 -1.1135976969954314e+02 0 0 0
4380 176 4 0.0000000000000000e+00 -8.4973638193873839e+01 -9.5072042198058369e+01 -1.1108148533511243e+02 0 0 0
4948 198 4 0.0000000000000000e+00 -6.5168969939942372e+01 -9.5260833334672625e+01 -1.0652114429955769e+02 0 0 0
4949 198 4 0.0000000000000000e+00 -5.6001828207618829e+01 -9.9069794244530414e+01 -1.0830725189303755e+02 0 0 0
3526 142 3 0.0000000000000000e+00 -2.3088995574088614e+01 -9.9100759536338373e+01 -1.1036020811005523e+02 0 0 0
1844 74 1 0.0000000000000000e+00 -1.6796134625621981e+01 -9.0908704891501500e+01 -1.1371580103422160e+02 0 0 0
4396 176 4 0.0000000000000000e+00 -1.1752728994146894e+01 -8.7727735882786320e+01 -1.0269896607031635e+02 0 0 0
2392 96 2 0.0000000000000000e+00 -1.1930007107455265e+02 -8.6540390711469598e+01 -1.0738612255743811e+02 0 0 0
2391 96 2 0.0000000000000000e+00 -1.1401105167123511e+02 -7.7822868392078917e+01 -1.0925545269003763e+02 0 0 0
3076 124 3 0.0000000000000000e+00 -7.7869347575301262e+01 -7.8041338985519118e+01 -1.1108351203430463e+02 0 0 0
4382 176 3 0.0000000000000000e+00 -6.8005938190676403e+01 -8.4056057802171736e+01 -1.1340288386175075e+02 0 0 0
4383 176 4 0.0000000000000000e+00 -6.2850813658268315e+01 -8.4102170961531655e+01 -1.0514342806269997e+02 0 0 0
4384 176 4 0.0000000000000000e+00 -6.0813780234958323e+01 -7.5072440617646890e+01 -1.0200011959703954e+02 0 0 0
262 11 2 0.0000000000000000e+00 -3.5245707266090115e+01 -7.8661646673961300e+01 -1.1115610818503549e+02 0 0 0
261 11 2 0.0000000000000000e+00 -2.8597116271553130e+01 -8.3268118801751370e+01 -1.0506456803527649e+02 0 0 0
1845 74 2 0.0000000000000000e+00 -8.2024400784815299e+00 -8.6298545666362969e+01 -1.1242647557127377e+02 0 0 0
2390 96 2 0.0000000000000000e+00 -1.0975114929345476e+02 -6.9778906514553483e+01 -1.0382723791991140e+02 0 0 0
3173 127 4 0.0000000000000000e+00 -1.0038306493136290e+02 -6.4691593618838411e+01 -1.1412652277839859e+02 0 0 0
1659 67 2 0.0000000000000000e+00 -6.3590202768158669e+01 -6.7768873152759127e+01 -1.0773649160734847e+02 0 0 0
1658 67 2 0.0000000000000000e+00 -7.0649635005764750e+01 -7.3271789796385406e+01 -1.0316503780508575e+02 0 0 0
3083 124 4 0.0000000000000000e+00 -4.7252178894308997e+01 -6.3534132704999557e+01 -1.1157174824756351e+02 0 0 0
1660 67 2 0.0000000000000000e+00 -5.7656208235084293e+01 -6.2014785235255793e+01 -1.1251807737064439e+02 0 0 0
1162 47 2 0.0000000000000000e+00 -3.3525223284443570e+01 -6.6641018619636711e+01 -1.1042312657936485e+02 0 0 0
1161 47 2 0.0000000000000000e+00 -4.0961346859501184e+01 -6.5529099986951067e+01 -1.0339054278731130e+02 0 0 0
1163 47 1 0.0000000000000000e+00 -2.6506553201589224e+01 -7.3955403736400683e+01 -1.1061308618188941e+02 0 0 0
4394 176 3 0.0000000000000000e+00 -1.9558891097923528e+01 -7.2123001633642644e+01 -1.0182651038383335e+02 0 0 0
3165 127 4 0.0000000000000000e+00 -1.3424074733622317e+02 -4.7482134968336354e+01 -1.1110083447598426e+02 0 0 0
3164 127 4 0.0000000000000000e+00 -1.2480713299159241e+02 -4.8649405067898670e+01 -1.0623608540015579e+02 0 0 0
590 24 2 0.0000000000000000e+00 -1.1707223747946638e+02 -5.6852758446562071e+01 -1.0981333782786115e+02 0 0 0
3163 127 3 0.0000000000000000e+00 -1.1540403851136034e+02 -4.8544942793928101e+01 -1.0272388223659691e+02 0 0 0
589 24 2 0.0000000000000000e+00 -1.0764564657905655e+02 -5.6283605690644833e+01 -1.1238463105700501e+02 0 0 0
3174 127 4 0.0000000000000000e+00 -9.4255557899748382e+01 -5.9712974722654764e+01 -1.0733583511748132e+02 0 0 0
3175 127 3 0.0000000000000000e+00 -9.2400050120007322e+01 -5.2205656265555618e+01 -1.0148619516972612e+02 0 0 0
3990 160 4 0.0000000000000000e+00 -8.3153674699258374e+01 -5.0218413249976003e+01 -1.1248683879910230e+02 0 0 0
3989 160 4 0.0000000000000000e+00 -7.3265395141772970e+01 -4.9267522254411979e+01 -1.1368268498335115e+02 0 0 0
3988 160 3 0.0000000000000000e+00 -6.7144468672304043e+01 -5.2977334698243723e+01 -1.0692582328191381e+02 0 0 0
1661 67 2 0.0000000000000000e+00 -5.3290874405587509e+01 -5.4422677890369400e+01 -1.0895540726527496e+02 0 0 0
3084 124 4 0.0000000000000000e+00 -4.2267873355054419e+01 -5.4505774430606699e+01 -1.1019134983080467e+02 0 0 0
4196 168 4 0.0000000000000000e+00 -1.3242082429816534e+02 -3.8546880221844248e+01 -1.0081172926487557e+02 0 0 0
1984 80 2 0.0000000000000000e+00 -1.2664654378864635e+02 -3.6542827009743540e+01 -1.1215270062801631e+02 0 0 0
1983 80 2 0.0000000000000000e+00 -1.2193310907813547e+02 -3.8471207506551991e+01 -1.0374034503631376e+02 0 0 0
3162 127 4 0.0000000000000000e+00 -1.1172230981491708e+02 -3.9654591098196853e+01 -1.0345952804714901e+02 0 0 0
3991 160 4 0.0000000000000000e+00 -8.9869416772658099e+01 -4.4402946615403899e+01 -1.0834593693157893e+02 0 0 0
3992 160 4 0.0000000000000000e+00 -9.8257211788150144e+01 -3.9116966105949842e+01 -1.0901138223796183e+02 0 0 0
583 24 2 0.0000000000000000e+00 -7.3877162140685073e+01 -3.9905349169044833e+01 -1.0857147215046830e+02 0 0 0
3069 123 3 0.0000000000000000e+00 -6.2597529267817990e+01 -3.9286910394580417e+01 -1.1151413275158242e+02 0 0 0
3070 123 4 0.0000000000000000e+00 -6.5270155988732313e+01 -4.3246602921336063e+01 -1.0292212110548628e+02 0 0 0
2725 109 3 0.0000000000000000e+00 -5.4715842989733559e+01 -4.4955116948479883e+01 -1.0469440388967901e+02 0 0 0
1169 47 1 0.0000000000000000e+00 -4.7914549230941446e+01 -4.2900525966629282e+01 -1.1295386451341831e+02 0 0 0
3086 124 4 0.0000000000000000e+00 -3.3239596584344305e+01 -4.0091472434554674e+01 -1.1402095927722708e+02 0 0 0
3085 124 4 0.0000000000000000e+00 -3.7658298316112955e+01 -4.6467794323687677e+01 -1.0754248333921390e+02 0 0 0
1170 47 2 0.0000000000000000e+00 -4.3100662198303141e+01 -3.5567139492113604e+01 -1.0733701019710897e+02 0 0 0
1996 80 2 0.0000000000000000e+00 -1.5770160181264154e+02 -3.2686274099152207e+01 -1.0136687652182432e+02 0 0 0
4197 168 4 0.0000000000000000e+00 -1.3076146572208040e+02 -2.9443174920012172e+01 -1.0546137001653685e+02 0 0 0
1985 80 2 0.0000000000000000e+00 -1.2059095951150697e+02 -2.9763928846887488e+01 -1.0964048219581876e+02 0 0 0
1986 80 2 0.0000000000000000e+00 -1.1792049646471887e+02 -2.4196764555679252e+01 -1.0222242274955120e+02 0 0 0
3161 127 4 0.0000000000000000e+00 -1.0737571638075218e+02 -3.2924519806255681e+01 -1.1002547166452445e+02 0 0 0
2383 96 2 0.0000000000000000e+00 -9.2642347448812160e+01 -2.3447334416094495e+01 -1.0552684409215567e+02 0 0 0
3996 160 4 0.0000000000000000e+00 -8.0729663963907427e+01 -3.2508660943697606e+01 -1.0805335578311477e+02 0 0 0
582 24 1 0.0000000000000000e+00 -6.7954698741734035e+01 -3.2899039041632179e+01 -1.0415299874722261e+02 0 0 0
581 24 2 0.0000000000000000e+00 -5.9996055384637629e+01 -2.6124356719088066e+01 -1.0198400319318665e+02 0 0 0
1171 47 2 0.0000000000000000e+00 -4.0125714748334431e+01 -2.6142976402756155e+01 -1.0512964418681338e+02 0 0 0
3089 124 4 0.0000000000000000e+00 -2.1080901576713842e+01 -2.4216157186811095e+01 -1.0807653336294514e+02 0 0 0
3090 124 4 0.0000000000000000e+00 -1.6142956406230560e+01 -3.1218012707005212e+01 -1.0340720317716416e+02 0 0 0
4198 168 4 0.0000000000000000e+00 -1.3064040874184943e+02 -1.9485144427437486e+01 -1.0389912405362898e+02 0 0 0
2382 96 1 0.0000000000000000e+00 -9.2680615917618425e+01 -1.8220829067135558e+01 -1.1415314799675002e+02 0 0 0
2171 87 2 0.0000000000000000e+00 -8.9853616207266171e+01 -1.1742252531871824e+01 -1.0298451548899276e+02 0 0 0
2170 87 2 0.0000000000000000e+00 -8.4236833013958659e+01 -1.2508249360664893e+01 -1.1090804441103866e+02 0 0 0
579 24 2 0.0000000000000000e+00 -5.0574900460872719e+01 -1.5307055462802982e+01 -1.0956145172228860e+02 0 0 0
580 24 2 0.0000000000000000e+00 -5.3443137590302328e+01 -1.8520626473655962e+01 -1.0114772478837112e+02 0 0 0
1172 47 2 0.0000000000000000e+00 -4.0579095468207122e+01 -1.7198098228096363e+01 -1.0076891093453469e+02 0 0 0
2160 87 2 0.0000000000000000e+00 -2.6187986781356884e+01 -7.5545557191440817e+00 -1.1042698662724294e+02 0 0 0
2399 96 2 0.0000000000000000e+00 -9.6103691001877152e+01 -1.4207747987144415e+02 -9.2340782705400514e+01 0 0 0
4159 167 4 0.0000000000000000e+00 -1.2115163630850765e+02 -1.3117115867637366e+02 -8.8497688262372080e+01 0 0 0
2398 96 2 0.0000000000000000e+00 -1.0308330069623342e+02 -1.3695834709708757e+02 -9.7471280138257143e+01 0 0 0
4158 167 4 0.0000000000000000e+00 -1.1256807205798773e+02 -1.3657231684454101e+02 -9.0619158911421209e+01 0 0 0
4154 167 4 0.0000000000000000e+00 -8.7750723041325415e+01 -1.1880299014635199e+02 -9.0210866442822166e+01 0 0 0
4153 167 4 0.0000000000000000e+00 -7.9849349672371659e+01 -1.1992765225717883e+02 -9.5972667410633804e+01 0 0 0
3529 142 4 0.0000000000000000e+00 -1.5221353582095828e+01 -1.1779823821295497e+02 -8.9565035613769197e+01 0 0 0
4376 176 3 0.0000000000000000e+00 -1.1146169190520368e+02 -1.0225408790619463e+02 -1.0062913710727476e+02 0 0 0
4377 176 4 0.0000000000000000e+00 -1.0195030742839251e+02 -1.0254746721238408e+02 -9.7773719643410885e+01 0 0 0
253 11 2 0.0000000000000000e+00 -6.2276933812364433e+01 -1.0868250901694208e+02 -9.2180470949629424e+01 0 0 0
257 11 1 0.0000000000000000e+00 -4.9381893115128705e+01 -1.0341957706551905e+02 -8.8056448804895368e+01 0 0 0
258 11 2 0.0000000000000000e+00 -3.9482498162399665e+01 -1.0185923388928001e+02 -9.0011044471193699e+01 0 0 0
3528 142 4 0.0000000000000000e+00 -2.1153366085978966e+01 -1.1225002568708958e+02 -9.5035247490722796e+01 0 0 0
259 11 2 0.0000000000000000e+00 -3.1425706877575340e+01 -1.0121255262695701e+02 -9.6862992332289352e+01 0 0 0
1651 67 1 0.0000000000000000e+00 -1.0763420792281669e+02 -9.5244849684980267e+01 -8.8912295306444591e+01 0 0 0
4946 198 4 0.0000000000000000e+00 -7.5128008182193810e+01 -9.1381058704800196e+01 -9.1107201838450152e+01 0 0 0
4947 198 4 0.0000000000000000e+00 -6.9687559624508552e+01 -9.6611020245738672e+01 -9.7421038474314372e+01 0 0 0
3877 156 4 0.0000000000000000e+00 -5.3666330609092206e+01 -8.9375229959286216e+01 -9.1640571226197409e+01 0 0 0
4950 198 3 0.0000000000000000e+00 -5.1192575824190165e+01 -1.0016775010799167e+02 -9.9352488923487485e+01 0 0 0
260 11 2 0.0000000000000000e+00 -2.7975466989600957e+01 -9.1837371922785877e+01 -9.9359568447126435e+01 0 0 0
1653 67 2 0.0000000000000000e+00 -1.1072344967882201e+02 -8.1407676468027944e+01 -8.7706173237995174e+01 0 0 0
1657 67 1 0.0000000000000000e+00 -8.0199977687668337e+01 -7.6066815818884479e+01 -1.0011211555669354e+02 0 0 0
2351 95 1 0.0000000000000000e+00 -4.4126728703024256e+01 -8.0732211658494123e+01 -8.7557276392094053e+01 0 0 0
4395 176 4 0.0000000000000000e+00 -1.8832577279002194e+01 -8.2054760127934955e+01 -9.9088348344092850e+01 0 0 0
2355 95 2 0.0000000000000000e+00 -6.6370878691263089e+00 -8.0653553478038248e+01 -8.9203357827505116e+01 0 0 0
4192 168 4 0.0000000000000000e+00 -1.5492818287165483e+02 -6.2519396000312653e+01 -9.3006167093272637e+01 0 0 0
1654 67 2 0.0000000000000000e+00 -1.0568649937221734e+02 -7.4128420787253361e+01 -9.2549649104067186e+01 0 0 0
2389 96 2 0.0000000000000000e+00 -1.0674076514381679e+02 -6.3227883909670403e+01 -9.6938704714570733e+01 0 0 0
1655 67 2 0.0000000000000000e+00 -9.7474599526536423e+01 -7.0884147059035996e+01 -9.8009337378761757e+01 0 0 0
1656 67 2 0.0000000000000000e+00 -8.8498712061528195e+01 -7.2621111398989498e+01 -9.4729269161946846e+01 0 0 0
4385 176 4 0.0000000000000000e+00 -5.8561269519516827e+01 -6.8541622167709818e+01 -9.4710148169724320e+01 0 0 0
4386 176 4 0.0000000000000000e+00 -5.2977310362753371e+01 -7.2983484228389230e+01 -8.7204672621768310e+01 0 0 0
1160 47 2 0.0000000000000000e+00 -4.4132625491439420e+01 -6.4713187523239469e+01 -9.3462650294480923e+01 0 0 0
4393 176 4 0.0000000000000000e+00 -2.1389975594355722e+01 -6.4370443384722634e+01 -9.5082471622739959e+01 0 0 0
4572 183 4 0.0000000000000000e+00 -6.3433888091197392e+00 -6.5436192787381714e+01 -9.8325138172909917e+01 0 0 0
4191 168 4 0.0000000000000000e+00 -1.6390231627162970e+02 -5.8249149592998336e+01 -9.5140937524531225e+01 0 0 0
4190 168 4 0.0000000000000000e+00 -1.6087776826470670e+02 -4.9789185638457703e+01 -9.0729925656519228e+01 0 0 0
4193 168 4 0.0000000000000000e+00 -1.4711037768796515e+02 -5.6595190206021826e+01 -9.0462095084459378e+01 0 0 0
4194 168 3 0.0000000000000000e+00 -1.3985382882242973e+02 -5.2563692667038744e+01 -9.6208917628561949e+01 0 0 0
591 24 2 0.0000000000000000e+00 -1.2119216398569689e+02 -5.6102337540910518e+01 -1.0070500760181854e+02 0 0 0
592 24 2 0.0000000000000000e+00 -1.1586800019603490e+02 -5.7931483013226547e+01 -9.1988448425578781e+01 0 0 0
2388 96 1 0.0000000000000000e+00 -1.0350591901547084e+02 -5.3776001160441616e+01 -1.0014291378749340e+02 0 0 0
1976 80 1 0.0000000000000000e+00 -7.5990233914923976e+01 -5.4444590908461706e+01 -1.0012367399396079e+02 0 0 0