LAMMPS data file via write_data, version 5 Jun 2019, timestep = 400000000

5000 atoms
4 atom types
5294 bonds
3 bond types
4600 angles
2 angle types

-2.5000000000000000e+02 2.5000000000000000e+02 xlo xhi
-2.5000000000000000e+02 2.5000000000000000e+02 ylo yhi
-2.5000000000000000e+02 2.5000000000000000e+02 zlo zhi

Masses

1 1000
2 1000
3 1000
4 1000

Pair Coeffs # lj/cut

1 0.18 10
2 0.18 10
3 0.18 10
4 0.18 10

Bond Coeffs # harmonic

1 3 10
2 3 10
3 3 11.22

Angle Coeffs # cosine

1 2
2 2

Atoms # full

4471 179 4 0.0000000000000000e+00 -4.6293381277708846e+01 2.4668353459610728e+01 -2.1457425409154430e+02 0 0 0
4470 179 4 0.0000000000000000e+00 -4.8096362755333026e+01 2.0917246534385420e+01 -2.0574566268877524e+02 0 0 0
4469 179 3 0.0000000000000000e+00 -4.8675076001367444e+01 1.3995813824781573e+01 -1.9870724531102846e+02 0 0 0
4472 179 4 0.0000000000000000e+00 -4.4194383731819187e+01 2.9948024510980762e+01 -2.0599241559660624e+02 0 0 0
2149 86 2 0.0000000000000000e+00 -4.1929626563768394e+01 2.2856380593612485e+01 -1.9649109510872429e+02 0 0 0
4473 179 4 0.0000000000000000e+00 -4.0098151179605807e+01 3.5232376026309346e+01 -1.9956753838105669e+02 0 0 0
3064 123 4 0.0000000000000000e+00 -5.2777910390255393e+01 -4.2450996068972678e+01 -1.8283214131285530e+02 0 0 0
3063 123 3 0.0000000000000000e+00 -5.0481067059181832e+01 -3.3028882374565413e+01 -1.8410955993576167e+02 0 0 0
56 3 2 0.0000000000000000e+00 1.7885037226555475e+01 -3.5619423847093316e+01 -1.8195995639947975e+02 0 0 0
55 3 2 0.0000000000000000e+00 1.9789324129602299e+01 -4.4767623549516429e+01 -1.8472993609936165e+02 0 0 0
3062 123 4 0.0000000000000000e+00 -5.5401841575128330e+01 -2.4295145198743239e+01 -1.8389700382609774e+02 0 0 0
4467 179 4 0.0000000000000000e+00 -4.5115998671387835e+01 3.2259117267321313e+00 -1.8364100019858247e+02 0 0 0
2239 90 2 0.0000000000000000e+00 -3.5247906043515563e+01 7.7582152724451037e+00 -1.8227173817333255e+02 0 0 0
2451 99 1 0.0000000000000000e+00 -1.2180807297757850e+02 1.6929697054955380e+01 -1.8184198489547325e+02 0 0 0
3057 123 3 0.0000000000000000e+00 -7.3784483293824067e+01 1.4782161723044116e+01 -1.8399095474291022e+02 0 0 0
4468 179 4 0.0000000000000000e+00 -4.9416917800972321e+01 1.0390648129404047e+01 -1.8946397923018102e+02 0 0 0
2237 90 2 0.0000000000000000e+00 -4.8455181069407281e+01 2.1754784439346803e+01 -1.8266884610862840e+02 0 0 0
2238 90 1 0.0000000000000000e+00 -4.1790938856119190e+01 1.4705500880601825e+01 -1.8106400277282327e+02 0 0 0
2680 108 4 0.0000000000000000e+00 -2.1275462400333918e+01 1.6802849148423398e+01 -1.8523381043842616e+02 0 0 0
2679 108 4 0.0000000000000000e+00 -3.0011111669234086e+01 2.1763669207210167e+01 -1.8610872042991963e+02 0 0 0
2150 86 1 0.0000000000000000e+00 -5.1309920087843459e+01 2.3761086066898301e+01 -1.9426955077515220e+02 0 0 0
2236 90 2 0.0000000000000000e+00 -5.3911722501282220e+01 2.9934651904137628e+01 -1.8350612052379185e+02 0 0 0
4474 179 4 0.0000000000000000e+00 -4.3295835260014108e+01 3.2419193505551895e+01 -1.9056805537043653e+02 0 0 0
2148 86 2 0.0000000000000000e+00 -3.2613428723033238e+01 2.5222174092814310e+01 -1.9439876451066368e+02 0 0 0
2147 86 2 0.0000000000000000e+00 -2.4897236503064573e+01 3.1828022723314362e+01 -1.9359091316829344e+02 0 0 0
2678 108 4 0.0000000000000000e+00 -2.7731552465449518e+01 3.0900879870992902e+01 -1.8482806986466093e+02 0 0 0
2681 108 4 0.0000000000000000e+00 -1.5518846417697652e+01 2.5073791530271720e+01 -1.8402826307518751e+02 0 0 0
2682 108 3 0.0000000000000000e+00 -1.2573701161951696e+01 3.1896759003122142e+01 -1.9101815031947285e+02 0 0 0
3211 129 4 0.0000000000000000e+00 3.4639520928275886e+00 2.9455193889441819e+01 -1.8792475390350262e+02 0 0 0
3212 129 4 0.0000000000000000e+00 1.3027723700342063e+01 2.9903029145104117e+01 -1.8871390269774392e+02 0 0 0
3065 123 4 0.0000000000000000e+00 -5.8592430810279019e+01 -4.6374705718009849e+01 -1.7522505512980072e+02 0 0 0
275 11 1 0.0000000000000000e+00 -5.5921763313066933e+01 -3.0821871572302850e+01 -1.7462788285451234e+02 0 0 0
1845 74 2 0.0000000000000000e+00 -2.3975954676686911e+01 -3.1016003263911298e+01 -1.6782086976984417e+02 0 0 0
1846 74 2 0.0000000000000000e+00 -1.7975044461106009e+01 -2.3271793410236203e+01 -1.7001683762456605e+02 0 0 0
1849 74 2 0.0000000000000000e+00 -3.6412714290886758e+00 -2.5722726362631445e+01 -1.7442788293212197e+02 0 0 0
1850 74 1 0.0000000000000000e+00 6.4034714967398010e+00 -2.4412630243691179e+01 -1.7189438405167601e+02 0 0 0
57 3 1 0.0000000000000000e+00 1.6957411739338330e+01 -2.8718651670641222e+01 -1.7477265698476876e+02 0 0 0
3061 123 4 0.0000000000000000e+00 -6.0084704781866641e+01 -1.6891830556138629e+01 -1.7852474654788804e+02 0 0 0
3060 123 4 0.0000000000000000e+00 -6.7702048348575119e+01 -1.1334469434766991e+01 -1.7601433071353745e+02 0 0 0
4465 179 4 0.0000000000000000e+00 -4.1294535834921994e+01 -1.2215725198004497e+01 -1.7128885104418998e+02 0 0 0
1847 74 2 0.0000000000000000e+00 -1.8044125273949813e+01 -1.8144980687375533e+01 -1.7940113628194769e+02 0 0 0
1848 74 2 0.0000000000000000e+00 -8.0583023912848457e+00 -1.7204049914553888e+01 -1.7801120677427096e+02 0 0 0
4800 192 3 0.0000000000000000e+00 1.5496808237977286e+01 -1.7728208065996252e+01 -1.7245500621518244e+02 0 0 0
4799 192 4 0.0000000000000000e+00 1.7211587952787887e+01 -8.6605123469195924e+00 -1.6809740161290455e+02 0 0 0
3058 123 4 0.0000000000000000e+00 -7.7273799653453850e+01 7.0338398108478319e+00 -1.7772718222185634e+02 0 0 0
3059 123 4 0.0000000000000000e+00 -7.2064621623439848e+01 -1.7862484663829714e+00 -1.7534296340568088e+02 0 0 0
4466 179 4 0.0000000000000000e+00 -4.4236438055420784e+01 -3.8302281296470619e+00 -1.7615908682215428e+02 0 0 0
2240 90 2 0.0000000000000000e+00 -3.7047986308525331e+01 4.8253571271289415e+00 -1.7249356386935645e+02 0 0 0
3202 129 4 0.0000000000000000e+00 -1.6068306335837750e+01 4.2428029524240367e+00 -1.7727784767220405e+02 0 0 0
3201 129 3 0.0000000000000000e+00 -7.8638119582727759e+00 -8.5044647918900429e-01 -1.7676305048165304e+02 0 0 0
4488 180 3 0.0000000000000000e+00 -1.2579009489311447e+02 1.7286992667963865e+01 -1.7163225735847405e+02 0 0 0
2452 99 2 0.0000000000000000e+00 -1.1335428118604679e+02 1.5291657101897316e+01 -1.7653391734240898e+02 0 0 0
2454 99 2 0.0000000000000000e+00 -1.0036908309282677e+02 2.1661237415784484e+01 -1.6682519238623632e+02 0 0 0
3056 123 4 0.0000000000000000e+00 -6.5880114375173022e+01 1.6508580467753543e+01 -1.7858838030316153e+02 0 0 0
3055 123 4 0.0000000000000000e+00 -6.0011535184723840e+01 2.0324586931588726e+01 -1.7111802993884672e+02 0 0 0
3203 129 4 0.0000000000000000e+00 -2.3354233450161839e+01 8.2543797390673301e+00 -1.7104162606703568e+02 0 0 0
4486 180 4 0.0000000000000000e+00 -1.3810549814901495e+02 2.9749704767102056e+01 -1.7155750399425901e+02 0 0 0
4487 180 4 0.0000000000000000e+00 -1.3069750980598042e+02 2.5197782866170790e+01 -1.7490520235360546e+02 0 0 0
2453 99 2 0.0000000000000000e+00 -1.0835257581371386e+02 2.1882766868081486e+01 -1.7142084471749044e+02 0 0 0
401 17 1 0.0000000000000000e+00 -7.6940072919629202e+01 2.1848087086771457e+01 -1.7571762502420827e+02 0 0 0
3054 123 4 0.0000000000000000e+00 -5.7732920270004975e+01 2.9819486804396675e+01 -1.7050476349784552e+02 0 0 0
3000 120 3 0.0000000000000000e+00 -4.0031711554144088e+01 2.4978690328834755e+01 -1.7573107442736685e+02 0 0 0
3206 129 4 0.0000000000000000e+00 -2.6461464048898602e+01 2.8622058716865119e+01 -1.7039126949199394e+02 0 0 0
3209 129 4 0.0000000000000000e+00 -8.9072565442709095e+00 3.0478098777721353e+01 -1.7275897588297602e+02 0 0 0
3208 129 4 0.0000000000000000e+00 -1.6907022964843321e+01 3.3082682067894147e+01 -1.6779319812562343e+02 0 0 0
3210 129 4 0.0000000000000000e+00 -1.5912436952695039e+00 2.7404025907849171e+01 -1.7942521543311321e+02 0 0 0
460 19 2 0.0000000000000000e+00 3.6977182785710427e+00 2.2606415902257268e+01 -1.6744713489067516e+02 0 0 0
462 19 2 0.0000000000000000e+00 1.1859478595419624e+01 3.3820408233108822e+01 -1.7498076628493618e+02 0 0 0
4451 179 3 0.0000000000000000e+00 -4.7340819606089326e+01 -7.7462699778949343e+01 -1.6396461005279437e+02 0 0 0
1839 74 2 0.0000000000000000e+00 -3.3028371223321820e+01 -7.8342033693013335e+01 -1.5419289096947620e+02 0 0 0
4452 179 4 0.0000000000000000e+00 -5.2075191900607201e+01 -6.8549502289959648e+01 -1.6242648076028189e+02 0 0 0
1838 74 1 0.0000000000000000e+00 -3.8627478506659124e+01 -7.2212238950174736e+01 -1.5896939423419914e+02 0 0 0
1837 74 2 0.0000000000000000e+00 -4.1511135041813446e+01 -6.2617471350238759e+01 -1.5957662293270272e+02 0 0 0
1840 74 2 0.0000000000000000e+00 -2.5373411272680364e+01 -7.3320093139187293e+01 -1.5926291599128635e+02 0 0 0
1841 74 2 0.0000000000000000e+00 -2.6983372873475250e+01 -6.4561500194414648e+01 -1.6348742977229685e+02 0 0 0
3066 123 4 0.0000000000000000e+00 -6.1215760897475036e+01 -4.8767903033485034e+01 -1.6633164105540402e+02 0 0 0
3068 123 4 0.0000000000000000e+00 -7.1999828424155211e+01 -5.9708314231536185e+01 -1.5310637660862105e+02 0 0 0
3067 123 4 0.0000000000000000e+00 -6.6355945895848407e+01 -5.3502168590094008e+01 -1.5829180874299664e+02 0 0 0
4453 179 4 0.0000000000000000e+00 -5.4586346343140434e+01 -5.8665883888592354e+01 -1.6080470669414038e+02 0 0 0
1836 74 2 0.0000000000000000e+00 -4.4723353621718047e+01 -5.3631622294249333e+01 -1.6275813272884494e+02 0 0 0
1842 74 2 0.0000000000000000e+00 -3.1271572938090294e+01 -5.5182526551621166e+01 -1.6332964860262399e+02 0 0 0
1843 74 2 0.0000000000000000e+00 -2.4832781111913974e+01 -4.7234786893543429e+01 -1.6344273007019405e+02 0 0 0
1835 74 2 0.0000000000000000e+00 -4.5091606944751163e+01 -4.4313332515354311e+01 -1.5789311550151285e+02 0 0 0
1844 74 1 0.0000000000000000e+00 -2.1018232094684034e+01 -3.8216659752653378e+01 -1.6243605762522395e+02 0 0 0
2800 112 3 0.0000000000000000e+00 -1.4950613717705188e+01 -3.7038781579065244e+01 -1.5314800957521064e+02 0 0 0
2799 112 4 0.0000000000000000e+00 -6.1711382123266958e+00 -3.3575430375756305e+01 -1.5634751660726033e+02 0 0 0
2798 112 4 0.0000000000000000e+00 3.5181214507305141e+00 -3.5711316277162744e+01 -1.5607440780176398e+02 0 0 0
3158 127 4 0.0000000000000000e+00 -9.8247432072249310e+01 -1.9834413898672075e+01 -1.5511910015723436e+02 0 0 0
3159 127 4 0.0000000000000000e+00 -9.1788644886854698e+01 -2.7885530288664018e+01 -1.5681038567028256e+02 0 0 0
274 11 2 0.0000000000000000e+00 -4.9928355828726147e+01 -3.0613890730564815e+01 -1.6667100236526636e+02 0 0 0
273 11 2 0.0000000000000000e+00 -4.0131142415184890e+01 -3.0337751875319256e+01 -1.6428515715517349e+02 0 0 0
272 11 2 0.0000000000000000e+00 -3.4144748223575583e+01 -3.0073255670637035e+01 -1.5610039508549173e+02 0 0 0
4777 192 4 0.0000000000000000e+00 7.0494093617571183e+00 -2.4110622294854675e+01 -1.5925332735692945e+02 0 0 0
4778 192 4 0.0000000000000000e+00 -2.4666020143028828e+00 -2.2002591026959703e+01 -1.5825826405999237e+02 0 0 0
4776 192 3 0.0000000000000000e+00 1.5083792374104052e+01 -2.5423737737965993e+01 -1.6512315341261731e+02 0 0 0
1454 59 2 0.0000000000000000e+00 -4.6554719545964488e+01 -8.6720129255094687e+00 -1.5769774389191244e+02 0 0 0
4464 179 4 0.0000000000000000e+00 -4.0575869175396292e+01 -1.6365279420691653e+01 -1.6214861117385979e+02 0 0 0
4463 179 3 0.0000000000000000e+00 -4.2540882374469227e+01 -1.8637321780857761e+01 -1.5307892174312698e+02 0 0 0
1455 59 2 0.0000000000000000e+00 -3.6750095032236267e+01 -6.0286131188568080e+00 -1.5757889561404113e+02 0 0 0
4780 192 4 0.0000000000000000e+00 -1.9790164724960611e+01 -1.7511321530851166e+01 -1.5336719653321865e+02 0 0 0
3409 137 4 0.0000000000000000e+00 -8.4289055035856009e+01 6.1297456581899112e+00 -1.6408480488713155e+02 0 0 0
1452 59 2 0.0000000000000000e+00 -6.0216980302932669e+01 4.3133204130821170e+00 -1.6275399578433553e+02 0 0 0
1451 59 1 0.0000000000000000e+00 -6.5439964793546906e+01 7.8875028640417399e+00 -1.5470223171781475e+02 0 0 0
1453 59 2 0.0000000000000000e+00 -5.4118569150496761e+01 -2.1466871271864947e+00 -1.5763866328801964e+02 0 0 0
2242 90 2 0.0000000000000000e+00 -4.0312163387359952e+01 3.6716833073158122e+00 -1.5914954060909963e+02 0 0 0
2241 90 2 0.0000000000000000e+00 -3.2710440398843240e+01 1.1608271086488360e+00 -1.6479221786289804e+02 0 0 0
1456 59 2 0.0000000000000000e+00 -2.8348567991177241e+01 -2.2321480264248308e+00 -1.5450631142168788e+02 0 0 0
1000 40 1 0.0000000000000000e+00 -9.2137496864343742e+00 2.1817227664978485e+00 -1.6615690019830947e+02 0 0 0
457 19 1 0.0000000000000000e+00 -1.0732924424178671e+01 4.1308316144432782e+00 -1.5350535799219472e+02 0 0 0
999 40 2 0.0000000000000000e+00 -1.0303505632714416e+00 6.2176015052128557e+00 -1.6288148665323669e+02 0 0 0
998 40 2 0.0000000000000000e+00 5.7933468350780455e+00 6.0493764330205106e+00 -1.5518427421811154e+02 0 0 0
4489 180 4 0.0000000000000000e+00 -1.2202228525305493e+02 1.7050710967640313e+01 -1.6254456888647638e+02 0 0 0
4490 180 4 0.0000000000000000e+00 -1.1460718047131560e+02 1.3201432542037296e+01 -1.5732720008098082e+02 0 0 0
4491 180 4 0.0000000000000000e+00 -1.0527449886692619e+02 1.6695478310126823e+01 -1.5750544050806602e+02 0 0 0
3410 137 4 0.0000000000000000e+00 -8.8571700897201424e+01 1.5182221382393168e+01 -1.6466981090051954e+02 0 0 0
4492 180 4 0.0000000000000000e+00 -9.7462143432944799e+01 1.2769367894522336e+01 -1.5353484997909936e+02 0 0 0
402 17 2 0.0000000000000000e+00 -7.5105785254724509e+01 2.1156890008622032e+01 -1.6630210130341786e+02 0 0 0
3408 137 4 0.0000000000000000e+00 -7.8652007109465103e+01 1.0063300655534380e+01 -1.5683018733842155e+02 0 0 0
403 17 2 0.0000000000000000e+00 -6.5419607345136370e+01 1.9724998333599061e+01 -1.6257823732982092e+02 0 0 0
3205 129 4 0.0000000000000000e+00 -2.5580867841423618e+01 1.9878320260345919e+01 -1.6588763389428749e+02 0 0 0
3204 129 4 0.0000000000000000e+00 -2.5490705450920519e+01 1.0753507483247748e+01 -1.6186022556686098e+02 0 0 0
458 19 2 0.0000000000000000e+00 -9.5454935732134505e+00 1.1336265222137234e+01 -1.6074891231612850e+02 0 0 0
410 17 2 0.0000000000000000e+00 -6.4006775036971826e+00 1.7417182305356892e+01 -1.5413236929790594e+02 0 0 0
459 19 2 0.0000000000000000e+00 -5.1185007899712636e+00 1.8434589305014651e+01 -1.6659494849007166e+02 0 0 0
2067 83 2 0.0000000000000000e+00 -1.1834757251553005e+02 2.4096993143051115e+01 -1.5493728970838669e+02 0 0 0
2455 99 2 0.0000000000000000e+00 -9.8629038772882978e+01 2.3931937893146081e+01 -1.5781818413058906e+02 0 0 0
3411 137 4 0.0000000000000000e+00 -8.6610039821950863e+01 2.4575201534477458e+01 -1.6680023862975753e+02 0 0 0
3412 137 4 0.0000000000000000e+00 -8.2237063936364436e+01 3.1507529706685823e+01 -1.6125884260511052e+02 0 0 0
1054 43 2 0.0000000000000000e+00 -6.9310861232256414e+01 2.7253973861989380e+01 -1.5684553355054743e+02 0 0 0
3053 123 4 0.0000000000000000e+00 -6.4773354745581017e+01 3.3272875173267693e+01 -1.6358752793501176e+02 0 0 0
404 17 2 0.0000000000000000e+00 -5.7107772205504375e+01 2.2816582168262268e+01 -1.5799497731731219e+02 0 0 0
405 17 2 0.0000000000000000e+00 -4.7544953953918608e+01 2.2302710362832897e+01 -1.5485588128920173e+02 0 0 0
2999 120 4 0.0000000000000000e+00 -4.3286756992233265e+01 2.6549093377873387e+01 -1.6655336889204267e+02 0 0 0
2998 120 4 0.0000000000000000e+00 -4.1412151355303322e+01 3.2731385790435198e+01 -1.5914638775312008e+02 0 0 0
406 17 2 0.0000000000000000e+00 -3.8288929971708427e+01 2.5132932407899471e+01 -1.5425384381689446e+02 0 0 0
407 17 1 0.0000000000000000e+00 -3.0922555661130911e+01 3.1549573836731788e+01 -1.5607559937264398e+02 0 0 0
408 17 2 0.0000000000000000e+00 -2.0947266565663977e+01 2.9896201031233531e+01 -1.5861760208625347e+02 0 0 0
409 17 2 0.0000000000000000e+00 -1.2585815581268303e+01 2.3899312904692326e+01 -1.5737723068240822e+02 0 0 0
461 19 2 0.0000000000000000e+00 1.0998147855452126e+01 2.9407374656606432e+01 -1.6642370480914300e+02 0 0 0
3660 147 4 0.0000000000000000e+00 1.7480776322084601e+01 2.8424780503209970e+01 -1.5395412615002891e+02 0 0 0
3069 123 3 0.0000000000000000e+00 -6.9983424402712600e+01 -6.6465390841654241e+01 -1.4584457837223357e+02 0 0 0
4455 179 4 0.0000000000000000e+00 -4.3940734158995674e+01 -6.0171306527306193e+01 -1.4397135522810288e+02 0 0 0
268 11 2 0.0000000000000000e+00 -2.6267963919567659e+01 -6.2496545135295051e+01 -1.4172013689874555e+02 0 0 0
3271 131 4 0.0000000000000000e+00 5.4493837889656467e+00 -6.2625520395612952e+01 -1.3958987965880615e+02 0 0 0
582 24 1 0.0000000000000000e+00 -7.8065153650486621e+01 -5.9587018878268786e+01 -1.4213080329958262e+02 0 0 0
581 24 2 0.0000000000000000e+00 -7.3318334821345957e+01 -5.1979559139813411e+01 -1.4742552453020701e+02 0 0 0
580 24 2 0.0000000000000000e+00 -6.4226235700737590e+01 -5.0076964753416576e+01 -1.4457868650654927e+02 0 0 0
4454 179 4 0.0000000000000000e+00 -4.9433730257938336e+01 -5.6877426753492649e+01 -1.5208120915431238e+02 0 0 0
269 11 1 0.0000000000000000e+00 -2.9653675117279892e+01 -5.3022095020186981e+01 -1.4139525269276857e+02 0 0 0
3274 131 4 0.0000000000000000e+00 -8.9467115907979995e+00 -4.7245443333886755e+01 -1.4071902143988706e+02 0 0 0
3273 131 4 0.0000000000000000e+00 6.3343770741475264e-02 -4.8530362629101830e+01 -1.4382240619756024e+02 0 0 0
3272 131 4 0.0000000000000000e+00 8.2230000433192050e+00 -5.3384075880255061e+01 -1.4020101637981784e+02 0 0 0
3161 127 4 0.0000000000000000e+00 -8.0189158082790641e+01 -3.5258085259939726e+01 -1.4323531739324881e+02 0 0 0
579 24 2 0.0000000000000000e+00 -5.6234997255056300e+01 -4.5596359711196307e+01 -1.4735895340585003e+02 0 0 0
578 24 2 0.0000000000000000e+00 -5.5868751674360055e+01 -3.5944392422403745e+01 -1.4720152551547480e+02 0 0 0
1834 74 2 0.0000000000000000e+00 -4.3128216220245491e+01 -4.5451128742615566e+01 -1.4833351318307223e+02 0 0 0
1833 74 2 0.0000000000000000e+00 -3.8748389477691596e+01 -4.0149982931697288e+01 -1.4092688993741083e+02 0 0 0
271 11 2 0.0000000000000000e+00 -3.0249656009556951e+01 -3.7579335015257570e+01 -1.4972959601710951e+02 0 0 0
270 11 2 0.0000000000000000e+00 -2.6125463053036874e+01 -4.3333302341452949e+01 -1.4295200541488629e+02 0 0 0
1461 59 2 0.0000000000000000e+00 -6.7798532047397702e+00 -3.2981344153864235e+01 -1.4213179930113091e+02 0 0 0
2797 112 4 0.0000000000000000e+00 1.0874015425698593e+01 -3.6890026808594705e+01 -1.4979952645656789e+02 0 0 0
2796 112 4 0.0000000000000000e+00 2.0486787609087731e+01 -3.7357010097331028e+01 -1.4523063889519429e+02 0 0 0
3160 127 4 0.0000000000000000e+00 -8.5011496759462503e+01 -2.8526172619317702e+01 -1.4932575750398931e+02 0 0 0
4461 179 4 0.0000000000000000e+00 -3.6056875443282081e+01 -3.0938353288849008e+01 -1.4084295783255826e+02 0 0 0
4462 179 4 0.0000000000000000e+00 -3.6874379930545693e+01 -2.1922891330172440e+01 -1.4522896420406286e+02 0 0 0
1460 59 2 0.0000000000000000e+00 -1.0787190342862573e+01 -2.3010559025354247e+01 -1.4187070553117934e+02 0 0 0
3157 127 3 0.0000000000000000e+00 -1.0113091516650873e+02 -1.0468716190599977e+01 -1.5209277534763524e+02 0 0 0
2169 87 1 0.0000000000000000e+00 -9.8666009600024580e+01 -1.4708075020744863e+01 -1.4227236998481644e+02 0 0 0
2168 87 2 0.0000000000000000e+00 -9.2320938314467455e+01 -7.3179894064432522e+00 -1.4165648327745470e+02 0 0 0
2244 90 1 0.0000000000000000e+00 -4.7686555782609425e+01 -9.8659554338210036e+00 -1.4810345921466563e+02 0 0 0
2245 90 2 0.0000000000000000e+00 -5.7043521121730620e+01 -9.7745047310060578e+00 -1.4595409532989967e+02 0 0 0
4781 192 4 0.0000000000000000e+00 -2.6652329387636517e+01 -1.3712198475010661e+01 -1.4745441550791188e+02 0 0 0
4779 192 4 0.0000000000000000e+00 -9.6866122237756169e+00 -1.8206562352269714e+01 -1.5288981809856702e+02 0 0 0
1458 59 2 0.0000000000000000e+00 -1.7041255004455483e+01 -5.5758713649918805e+00 -1.4210417294951444e+02 0 0 0
3156 127 4 0.0000000000000000e+00 -1.0338420116290807e+02 -3.6602948644911937e+00 -1.4541105759166976e+02 0 0 0
3155 127 4 0.0000000000000000e+00 -1.1212307265099575e+02 8.2452634790268386e-01 -1.4236409703065908e+02 0 0 0
2246 90 2 0.0000000000000000e+00 -5.8214657079859478e+01 -7.2735537495573743e-01 -1.4073799463976775e+02 0 0 0
2243 90 2 0.0000000000000000e+00 -4.4972402376253036e+01 -4.9380948558361520e-01 -1.5038295509857832e+02 0 0 0
4782 192 3 0.0000000000000000e+00 -2.9116267365174881e+01 -5.1557768075849291e+00 -1.4173939342573991e+02 0 0 0
1457 59 1 0.0000000000000000e+00 -2.1530808277527935e+01 1.3070409584193714e+00 -1.4759621460523022e+02 0 0 0
456 19 2 0.0000000000000000e+00 -1.1420504033277835e+01 1.7235549062240811e+00 -1.4350879333731240e+02 0 0 0
2804 113 4 0.0000000000000000e+00 1.9301644140029360e+01 -3.4674390193560973e+00 -1.4185977164351459e+02 0 0 0
2805 113 4 0.0000000000000000e+00 1.6325426397126144e+01 5.9337107256856010e+00 -1.4076018992214870e+02 0 0 0
2069 83 1 0.0000000000000000e+00 -1.0700834369350640e+02 1.6657343323568206e+01 -1.4128796466252990e+02 0 0 0
4493 180 4 0.0000000000000000e+00 -9.0475797682869867e+01 1.5556391484845124e+01 -1.4740275795044548e+02 0 0 0
3407 137 3 0.0000000000000000e+00 -7.3149476863152884e+01 1.4013515029564525e+01 -1.4945286121843455e+02 0 0 0
3406 137 4 0.0000000000000000e+00 -6.5315944291580124e+01 1.4801236039786907e+01 -1.4414219047722185e+02 0 0 0
3405 137 4 0.0000000000000000e+00 -5.5217102636038312e+01 1.6492986727978053e+01 -1.4294737584050463e+02 0 0 0
3404 137 4 0.0000000000000000e+00 -4.6714265018069455e+01 1.4827794969001623e+01 -1.4773718358388561e+02 0 0 0
3403 137 4 0.0000000000000000e+00 -3.8398859838116309e+01 1.1113499123004340e+01 -1.5178645093589816e+02 0 0 0
3401 137 3 0.0000000000000000e+00 -1.9250540286941181e+01 1.1046807239891098e+01 -1.5155552319844455e+02 0 0 0
3402 137 4 0.0000000000000000e+00 -2.8727819269904241e+01 1.5110279109197393e+01 -1.5239924379344114e+02 0 0 0
411 17 2 0.0000000000000000e+00 -7.2849219493058026e+00 1.6381178645392382e+01 -1.4403003479030849e+02 0 0 0
996 40 2 0.0000000000000000e+00 1.1071301969831493e+01 1.7705555958479056e+01 -1.3992917869398732e+02 0 0 0
997 40 2 0.0000000000000000e+00 8.9639211314688900e+00 1.2165928218042593e+01 -1.4838284900315392e+02 0 0 0
2066 83 2 0.0000000000000000e+00 -1.2247006257754327e+02 3.0935257849177002e+01 -1.4900135740780695e+02 0 0 0
2068 83 2 0.0000000000000000e+00 -1.1049016163870006e+02 2.3332665417384888e+01 -1.4806637046024733e+02 0 0 0
2456 99 2 0.0000000000000000e+00 -9.3502894616049247e+01 2.4662422815007833e+01 -1.4944734971464771e+02 0 0 0
2457 99 1 0.0000000000000000e+00 -8.9208584176604830e+01 3.2476041375570752e+01 -1.4399166618603087e+02 0 0 0
4494 180 3 0.0000000000000000e+00 -8.3576454533582336e+01 2.2926853762665733e+01 -1.4626598266155261e+02 0 0 0
1055 43 2 0.0000000000000000e+00 -6.1421539363488257e+01 2.9871628590500986e+01 -1.5242662247718235e+02 0 0 0
1053 43 2 0.0000000000000000e+00 -7.2168965603648189e+01 2.5263361052307911e+01 -1.4750966599593630e+02 0 0 0
1056 43 2 0.0000000000000000e+00 -5.3426813401617387e+01 2.8857501466600407e+01 -1.4669493739829119e+02 0 0 0
1057 43 1 0.0000000000000000e+00 -4.3710088424832385e+01 2.5332839009899082e+01 -1.4628669195886246e+02 0 0 0
1058 43 2 0.0000000000000000e+00 -3.7215109669244598e+01 2.3258984387769917e+01 -1.3910272782309144e+02 0 0 0
1060 43 2 0.0000000000000000e+00 -2.2245578605342477e+01 2.9377283117833954e+01 -1.4252394964211064e+02 0 0 0
3658 147 4 0.0000000000000000e+00 6.8262819067137874e+00 3.3927588140165611e+01 -1.5135930454149383e+02 0 0 0
3659 147 4 0.0000000000000000e+00 8.3929430249120962e+00 2.4606721021279178e+01 -1.5178620640226737e+02 0 0 0
265 11 2 0.0000000000000000e+00 -3.3791284709581305e+01 -8.1692391616609171e+01 -1.2561584033007396e+02 0 0 0
266 11 2 0.0000000000000000e+00 -2.7607128423743159e+01 -7.9525897799504307e+01 -1.3296353228051652e+02 0 0 0
3269 131 3 0.0000000000000000e+00 -8.3436326754739785e+00 -7.6459753851428914e+01 -1.3402741036557666e+02 0 0 0
3268 131 4 0.0000000000000000e+00 -1.4494305248476582e+01 -7.7196046773471735e+01 -1.2608034956000955e+02 0 0 0
583 24 2 0.0000000000000000e+00 -8.3888251937394458e+01 -6.1126817842049299e+01 -1.3467781707572885e+02 0 0 0
3070 123 4 0.0000000000000000e+00 -6.9062863900999403e+01 -6.5098678515374061e+01 -1.3600869533558421e+02 0 0 0
3071 123 4 0.0000000000000000e+00 -6.4648345080999363e+01 -6.1655467132738288e+01 -1.2721482057253088e+02 0 0 0
267 11 2 0.0000000000000000e+00 -2.3484778612331688e+01 -7.0909655238083516e+01 -1.3621879053580574e+02 0 0 0
3270 131 4 0.0000000000000000e+00 -1.0042794151004570e+00 -6.9626602118433539e+01 -1.3548941960664504e+02 0 0 0
4456 179 4 0.0000000000000000e+00 -3.8600774766650133e+01 -5.7710380928906524e+01 -1.3549647788615900e+02 0 0 0
4457 179 3 0.0000000000000000e+00 -3.7504219667917980e+01 -5.2696571518830567e+01 -1.2707060941600815e+02 0 0 0
1831 74 2 0.0000000000000000e+00 -2.5578264677082071e+01 -5.0327094556733748e+01 -1.3005004104519477e+02 0 0 0
3275 131 3 0.0000000000000000e+00 -1.8645840704075621e+01 -5.1318638518850484e+01 -1.3890898942116851e+02 0 0 0
3162 127 4 0.0000000000000000e+00 -7.8444166134760707e+01 -3.3698584931990375e+01 -1.3377254583296309e+02 0 0 0
576 24 1 0.0000000000000000e+00 -5.8520904902396929e+01 -3.5859213427842278e+01 -1.2970557110768368e+02 0 0 0
577 24 2 0.0000000000000000e+00 -5.3638157614547268e+01 -3.9415088703853023e+01 -1.3824489379570514e+02 0 0 0
4459 179 4 0.0000000000000000e+00 -3.9295276162995066e+01 -3.8434432276723719e+01 -1.2760439921280329e+02 0 0 0
1832 74 1 0.0000000000000000e+00 -3.2865885687154638e+01 -4.4608307361990185e+01 -1.3361586530618834e+02 0 0 0
3263 131 3 0.0000000000000000e+00 -5.3229433294272193e+00 -4.0456387137927805e+01 -1.3387657312512852e+02 0 0 0
3262 131 4 0.0000000000000000e+00 4.6308164542076584e+00 -3.9054200370812417e+01 -1.3747228466006393e+02 0 0 0
3261 131 4 0.0000000000000000e+00 1.2675722198000821e+01 -3.7763505229147952e+01 -1.3103210665909307e+02 0 0 0
2171 87 2 0.0000000000000000e+00 -1.0181280916009405e+02 -2.4981339669994771e+01 -1.2587726099038328e+02 0 0 0
2075 83 1 0.0000000000000000e+00 -8.2725797072127634e+01 -2.9831640988112063e+01 -1.2624986114637495e+02 0 0 0
3176 128 3 0.0000000000000000e+00 -6.2131103916268238e+01 -2.6970492179203962e+01 -1.3433220344335447e+02 0 0 0
3163 127 3 0.0000000000000000e+00 -7.2228470004253182e+01 -2.7891352837874415e+01 -1.2842053937325116e+02 0 0 0
3177 128 4 0.0000000000000000e+00 -5.4323480050529874e+01 -2.0521179159366579e+01 -1.3479665466533467e+02 0 0 0
2161 87 2 0.0000000000000000e+00 -5.3125657521708362e+01 -2.8168615327961042e+01 -1.2554785928229029e+02 0 0 0
4460 179 4 0.0000000000000000e+00 -3.8200612803744228e+01 -2.9209806404878048e+01 -1.3144133351783375e+02 0 0 0
4574 183 4 0.0000000000000000e+00 -1.5585719069525293e+01 -2.4000774439847316e+01 -1.2546092333533319e+02 0 0 0
4575 183 3 0.0000000000000000e+00 -6.3585586645743115e+00 -2.1918084249111288e+01 -1.2983238423419758e+02 0 0 0
1462 59 2 0.0000000000000000e+00 -2.8759905632963900e-01 -3.0625675536703657e+01 -1.3455023633072332e+02 0 0 0
3260 131 4 0.0000000000000000e+00 1.8626044114981564e+01 -2.9525671391118543e+01 -1.3232199842468273e+02 0 0 0
3259 131 4 0.0000000000000000e+00 2.0146986072505452e+01 -1.9860009451246793e+01 -1.3184391558440365e+02 0 0 0
2170 87 2 0.0000000000000000e+00 -9.9143343547777278e+01 -1.8604896904935714e+01 -1.3275918883515320e+02 0 0 0
2073 83 2 0.0000000000000000e+00 -9.0068968678658834e+01 -1.1772268754197796e+01 -1.2678279646136123e+02 0 0 0
2164 87 2 0.0000000000000000e+00 -6.1620956494189528e+01 -6.8536258216793513e+00 -1.3087131108617723e+02 0 0 0
2163 87 1 0.0000000000000000e+00 -5.9739598986366389e+01 -1.5716698432558870e+01 -1.2613314031535907e+02 0 0 0
3178 128 4 0.0000000000000000e+00 -4.7737390401714087e+01 -1.6250681926603143e+01 -1.2856660356033404e+02 0 0 0
3179 128 4 0.0000000000000000e+00 -4.3222835013534521e+01 -7.2529940676897908e+00 -1.2850320913700264e+02 0 0 0
1459 59 2 0.0000000000000000e+00 -1.4127275984478006e+01 -1.4460820152286113e+01 -1.3831725403882484e+02 0 0 0
454 19 2 0.0000000000000000e+00 4.8344755965983639e+00 -6.2229016283034868e+00 -1.3474497794834787e+02 0 0 0
3256 131 4 0.0000000000000000e+00 -3.5692747108407201e+00 -9.5105126444402686e+00 -1.2784752006883474e+02 0 0 0
453 19 2 0.0000000000000000e+00 8.9403229577218841e+00 -1.5226437936842363e+01 -1.3258792332553509e+02 0 0 0
3154 127 4 0.0000000000000000e+00 -1.2002854225724244e+02 5.7869517384214371e+00 -1.3862682734131465e+02 0 0 0
3153 127 4 0.0000000000000000e+00 -1.2153670974463596e+02 5.4840505790852561e+00 -1.2870635645970847e+02 0 0 0
2071 83 2 0.0000000000000000e+00 -9.9266883503837548e+01 5.1362220674471830e+00 -1.2923771204723755e+02 0 0 0
2072 83 2 0.0000000000000000e+00 -9.5831603990275312e+01 -4.4717716055970813e+00 -1.3040260942091075e+02 0 0 0
2167 87 2 0.0000000000000000e+00 -8.8865667900786391e+01 -9.0270255894438522e-01 -1.3420319098411014e+02 0 0 0
2166 87 2 0.0000000000000000e+00 -8.0506137031676502e+01 -1.6612260166317614e+00 -1.2813100804339783e+02 0 0 0
2165 87 2 0.0000000000000000e+00 -7.0851481805588548e+01 -3.7166754566947389e+00 -1.3059677248646000e+02 0 0 0
2247 90 2 0.0000000000000000e+00 -6.2938692921282737e+01 4.8920670504798016e+00 -1.3364496435960518e+02 0 0 0
2248 90 2 0.0000000000000000e+00 -6.8080639461502827e+01 6.8685905808784895e+00 -1.2544455893036736e+02 0 0 0
3180 128 4 0.0000000000000000e+00 -4.8445606003225251e+01 1.8417355863199099e+00 -1.3028464688365236e+02 0 0 0
4783 192 4 0.0000000000000000e+00 -3.0424579191564693e+01 -1.4679058381778336e+00 -1.3234053022907699e+02 0 0 0
455 19 2 0.0000000000000000e+00 -4.7090539144175105e+00 -2.9709767130583513e+00 -1.3642703421146274e+02 0 0 0
413 17 1 0.0000000000000000e+00 1.3256540338830408e-01 6.6844360903230760e+00 -1.2957393399374317e+02 0 0 0
415 17 2 0.0000000000000000e+00 1.6474864814624233e+01 -1.9804306013727477e+00 -1.2622036115888032e+02 0 0 0
2070 83 2 0.0000000000000000e+00 -1.0242763964541629e+02 1.4020700180019000e+01 -1.3278580482400369e+02 0 0 0