LAMMPS data file via write_data, version 5 Jun 2019, timestep = 360000000

5000 atoms
4 atom types
5293 bonds
3 bond types
4600 angles
2 angle types

-2.5000000000000000e+02 2.5000000000000000e+02 xlo xhi
-2.5000000000000000e+02 2.5000000000000000e+02 ylo yhi
-2.5000000000000000e+02 2.5000000000000000e+02 zlo zhi

Masses

1 1000
2 1000
3 1000
4 1000

Pair Coeffs # lj/cut

1 0.18 10
2 0.18 10
3 0.18 10
4 0.18 10

Bond Coeffs # harmonic

1 3 10
2 3 10
3 3 11.22

Angle Coeffs # cosine

1 2
2 2

Atoms # full

4776 192 3 0.0000000000000000e+00 -3.9927967322623658e+01 -7.7636774268169418e+01 -1.8061902017839176e+02 0 0 0
4777 192 4 0.0000000000000000e+00 -3.0567338936043530e+01 -7.3287327244185889e+01 -1.8233776829297153e+02 0 0 0
4778 192 4 0.0000000000000000e+00 -2.4913379539694095e+01 -6.4747835090782644e+01 -1.8464365767835068e+02 0 0 0
4779 192 4 0.0000000000000000e+00 -2.1380117992173275e+01 -5.6579875010164400e+01 -1.8167637807601957e+02 0 0 0
2800 112 3 0.0000000000000000e+00 4.4627046512224648e+00 -5.1236359562192092e+01 -1.8876911919117913e+02 0 0 0
3060 123 4 0.0000000000000000e+00 -5.8128005950861755e+01 -3.6165564434098279e+01 -1.8452454864290769e+02 0 0 0
3061 123 4 0.0000000000000000e+00 -6.3228289628660264e+01 -4.4783184556988360e+01 -1.8180674460212822e+02 0 0 0
2799 112 4 0.0000000000000000e+00 2.8344622015395471e+00 -4.3406626591420022e+01 -1.8267228706242074e+02 0 0 0
3059 123 4 0.0000000000000000e+00 -5.7318036925914612e+01 -2.6417213374696480e+01 -1.8528724303597218e+02 0 0 0
4466 179 4 0.0000000000000000e+00 -4.9158170974394430e+01 -2.9850567620949661e+01 -1.8040269303844389e+02 0 0 0
4467 179 4 0.0000000000000000e+00 -4.4420952194069223e+01 -2.2140841356702037e+01 -1.8363849700740798e+02 0 0 0
1454 59 2 0.0000000000000000e+00 -2.7903501275296655e+01 -2.3537837846052373e+01 -1.8249184696536571e+02 0 0 0
1455 59 2 0.0000000000000000e+00 -2.1741291956744025e+01 -3.0523675575385386e+01 -1.8423056165410080e+02 0 0 0
3205 129 4 0.0000000000000000e+00 -2.4045219290068540e+00 -2.4337440331083883e+01 -1.8767684496925526e+02 0 0 0
3204 129 4 0.0000000000000000e+00 4.7491093063721177e+00 -2.3950121186102511e+01 -1.8061533107166682e+02 0 0 0
3058 123 4 0.0000000000000000e+00 -5.6721101105254782e+01 -1.6466925080490984e+01 -1.8431943978971097e+02 0 0 0
3057 123 3 0.0000000000000000e+00 -5.8730138475828042e+01 -7.4583517830264565e+00 -1.8191071669519013e+02 0 0 0
4468 179 4 0.0000000000000000e+00 -4.0725457782850754e+01 -1.3742753826530961e+01 -1.8794597807069383e+02 0 0 0
1453 59 2 0.0000000000000000e+00 -3.0532869294889345e+01 -1.4086001334499924e+01 -1.8278113398787133e+02 0 0 0
3207 129 3 0.0000000000000000e+00 -1.6265737425151364e+01 -1.2722887113727420e+01 -1.9153556992903228e+02 0 0 0
407 17 1 0.0000000000000000e+00 -1.4187190374069726e+01 -1.5192499337210771e+01 -1.8048987486359292e+02 0 0 0
3206 129 4 0.0000000000000000e+00 -8.2760923086367217e+00 -1.8117244775268169e+01 -1.9291717350583991e+02 0 0 0
1849 74 2 0.0000000000000000e+00 -4.4576300931540331e+01 -8.8945187612417698e+01 -1.6938797644369333e+02 0 0 0
1850 74 1 0.0000000000000000e+00 -4.8778086590689846e+01 -8.1143853500751490e+01 -1.7461373176052226e+02 0 0 0
272 11 2 0.0000000000000000e+00 -4.1727616179880286e+01 -6.8790984751695817e+01 -1.7234774697894031e+02 0 0 0
2174 87 2 0.0000000000000000e+00 -1.2139137872065639e+02 -4.6045809795523205e+01 -1.6756419932795407e+02 0 0 0
2170 87 2 0.0000000000000000e+00 -9.0582303733727713e+01 -5.2004109000222222e+01 -1.7016378687374325e+02 0 0 0
2171 87 2 0.0000000000000000e+00 -9.6752479496286284e+01 -4.7614676966503630e+01 -1.7630026855922304e+02 0 0 0
3160 127 4 0.0000000000000000e+00 -7.8782354276146620e+01 -4.7244709834050184e+01 -1.7350594257480765e+02 0 0 0
273 11 2 0.0000000000000000e+00 -4.3191561731638309e+01 -5.8564108182806052e+01 -1.7508947666058344e+02 0 0 0
274 11 2 0.0000000000000000e+00 -4.8229855156188798e+01 -5.0411328882708823e+01 -1.7178803240507764e+02 0 0 0
4780 192 4 0.0000000000000000e+00 -2.0068559141343606e+01 -5.0064794504941261e+01 -1.7452541850808524e+02 0 0 0
4781 192 4 0.0000000000000000e+00 -2.5658046082963683e+01 -4.7821502839012837e+01 -1.6625495960196798e+02 0 0 0
2173 87 2 0.0000000000000000e+00 -1.1518682828575645e+02 -4.1770675329395118e+01 -1.7439060120634295e+02 0 0 0
2172 87 2 0.0000000000000000e+00 -1.0562964962800763e+02 -4.2510175040591896e+01 -1.7753555135766391e+02 0 0 0
3159 127 4 0.0000000000000000e+00 -7.7169941227108694e+01 -3.7393245857890335e+01 -1.7667181572551922e+02 0 0 0
3158 127 4 0.0000000000000000e+00 -7.6912104261752120e+01 -3.5824188462804095e+01 -1.6610409997177121e+02 0 0 0
3062 123 4 0.0000000000000000e+00 -6.8879208348333208e+01 -4.1991977115186607e+01 -1.7410947256990991e+02 0 0 0
4465 179 4 0.0000000000000000e+00 -4.3451533214881700e+01 -3.7301981658757228e+01 -1.7720370515231284e+02 0 0 0
275 11 1 0.0000000000000000e+00 -5.2963480950720836e+01 -4.0820885952161497e+01 -1.7163529594799772e+02 0 0 0
4464 179 4 0.0000000000000000e+00 -3.4676609833284971e+01 -3.4942929390250441e+01 -1.7327531950101744e+02 0 0 0
1456 59 2 0.0000000000000000e+00 -1.9274264417233912e+01 -3.5789031907692689e+01 -1.7613351916929722e+02 0 0 0
1457 59 1 0.0000000000000000e+00 -1.8174777604893748e+01 -3.8163676130942896e+01 -1.6631088675791815e+02 0 0 0
2798 112 4 0.0000000000000000e+00 3.7101422725687936e+00 -3.5916458363488204e+01 -1.7590822228536007e+02 0 0 0
2244 90 1 0.0000000000000000e+00 -2.3886308354627069e+01 -2.7700584740782080e+01 -1.6836445691052685e+02 0 0 0
2797 112 4 0.0000000000000000e+00 1.2194008504483330e+01 -3.1800976817680603e+01 -1.7258881323203414e+02 0 0 0
1451 59 1 0.0000000000000000e+00 -4.8661820088856253e+01 -7.5257433212145575e+00 -1.7957131790575593e+02 0 0 0
3407 137 3 0.0000000000000000e+00 -5.1796600373305459e+01 -9.9249677608151199e+00 -1.6929541436054129e+02 0 0 0
1452 59 2 0.0000000000000000e+00 -3.9816483700404945e+01 -1.2096013490778065e+01 -1.7838028252476633e+02 0 0 0
3406 137 4 0.0000000000000000e+00 -4.1432896624425680e+01 -9.8325788082751853e+00 -1.6736345510649758e+02 0 0 0
406 17 2 0.0000000000000000e+00 -1.7695941699264441e+01 -7.6928822231487901e+00 -1.7409044088577542e+02 0 0 0
2243 90 2 0.0000000000000000e+00 -2.5903173211644365e+01 -1.7830473886672635e+01 -1.6792472008713989e+02 0 0 0
2242 90 2 0.0000000000000000e+00 -2.7394841812667515e+01 -7.9215722395591284e+00 -1.6960178778408621e+02 0 0 0
408 17 2 0.0000000000000000e+00 -5.2037247910747473e+00 -1.5485620657331800e+01 -1.7628325285994543e+02 0 0 0
409 17 2 0.0000000000000000e+00 -1.8049405360354989e+00 -1.0701314399159024e+01 -1.6838791142852816e+02 0 0 0
461 19 2 0.0000000000000000e+00 1.1621769111895500e+01 -1.2551803046991406e+01 -1.6875607939388976e+02 0 0 0
2393 96 2 0.0000000000000000e+00 -8.6922709723105513e+01 -8.9486415881382996e+01 -1.5283051792362454e+02 0 0 0
1848 74 2 0.0000000000000000e+00 -4.8451531672370919e+01 -8.9107913599846711e+01 -1.5986751114508857e+02 0 0 0
1847 74 2 0.0000000000000000e+00 -4.8863587646442959e+01 -9.8711732565012298e+01 -1.5482187378923231e+02 0 0 0
1828 74 2 0.0000000000000000e+00 2.6084610800784382e+00 -8.6659897203472298e+01 -1.5962877874971414e+02 0 0 0
271 11 2 0.0000000000000000e+00 -3.7380101784092737e+01 -7.3512857821189712e+01 -1.6397394488604519e+02 0 0 0
269 11 1 0.0000000000000000e+00 -2.0874171351233176e+01 -7.4806022049232908e+01 -1.5320095616933992e+02 0 0 0
1829 74 2 0.0000000000000000e+00 2.5732729668996499e+00 -7.7327612310018409e+01 -1.5668157762318424e+02 0 0 0
3163 127 3 0.0000000000000000e+00 -8.2872668799799570e+01 -6.6493234129431102e+01 -1.5550025867651530e+02 0 0 0
3162 127 4 0.0000000000000000e+00 -7.8691608217136789e+01 -5.9756917356311199e+01 -1.6161222691383657e+02 0 0 0
270 11 2 0.0000000000000000e+00 -2.8671063756571410e+01 -7.1568080480774114e+01 -1.5950917982279637e+02 0 0 0
1830 74 2 0.0000000000000000e+00 -2.4072533745299188e-01 -6.7754032064651867e+01 -1.5388181357603349e+02 0 0 0
1831 74 2 0.0000000000000000e+00 -9.0440472746593397e+00 -6.2385666875504768e+01 -1.5529807927890670e+02 0 0 0
4000 160 3 0.0000000000000000e+00 -1.3047581605758182e+02 -5.5694796104106182e+01 -1.6168587728328723e+02 0 0 0
3999 160 4 0.0000000000000000e+00 -1.2917168051444719e+02 -5.8686599558411579e+01 -1.5230159203241752e+02 0 0 0
2169 87 1 0.0000000000000000e+00 -8.9572655636153300e+01 -4.9121629558346754e+01 -1.6069460720335246e+02 0 0 0
2168 87 2 0.0000000000000000e+00 -8.3733163524684059e+01 -4.5789184384582775e+01 -1.5269603599624099e+02 0 0 0
3161 127 4 0.0000000000000000e+00 -8.0298961791622801e+01 -5.0464402333710815e+01 -1.6422381479033132e+02 0 0 0
3064 123 4 0.0000000000000000e+00 -5.7386729014885574e+01 -4.7824077584581033e+01 -1.6107317532565591e+02 0 0 0
3065 123 4 0.0000000000000000e+00 -5.3894861305336647e+01 -5.3087471544832333e+01 -1.5309580365408084e+02 0 0 0
4460 179 4 0.0000000000000000e+00 -4.3674621892370446e+01 -5.4351371285089208e+01 -1.5241129391174306e+02 0 0 0
4461 179 4 0.0000000000000000e+00 -3.7953979859821324e+01 -4.6355009959649124e+01 -1.5508995459048512e+02 0 0 0
1458 59 2 0.0000000000000000e+00 -1.1341265925506450e+01 -4.5785663123363435e+01 -1.6358130830425287e+02 0 0 0
1459 59 2 0.0000000000000000e+00 -6.1529392336135302e+00 -4.6280639267554577e+01 -1.5539097602438724e+02 0 0 0
2175 87 1 0.0000000000000000e+00 -1.2940104853614153e+02 -4.4106868602433337e+01 -1.6179754101906300e+02 0 0 0
3153 127 4 0.0000000000000000e+00 -1.1930708434280135e+02 -3.5996985987361171e+01 -1.5587769577196437e+02 0 0 0
3154 127 4 0.0000000000000000e+00 -1.1155570750989219e+02 -4.2442238943041211e+01 -1.5319653175120669e+02 0 0 0
3155 127 4 0.0000000000000000e+00 -1.0269200316443438e+02 -4.4774293189864153e+01 -1.5585530638250077e+02 0 0 0
3156 127 4 0.0000000000000000e+00 -9.5715792292503636e+01 -4.0042595157698358e+01 -1.6064970096846605e+02 0 0 0
3157 127 3 0.0000000000000000e+00 -8.6090564881747312e+01 -3.8233117828131604e+01 -1.6250027450198542e+02 0 0 0
2070 83 2 0.0000000000000000e+00 -7.3755454562657746e+01 -3.4479931962055140e+01 -1.5595519954717670e+02 0 0 0
3063 123 3 0.0000000000000000e+00 -6.2844826176502423e+01 -4.0741943542266732e+01 -1.6588305366130365e+02 0 0 0
4462 179 4 0.0000000000000000e+00 -3.5412547181408840e+01 -3.7239215264548861e+01 -1.5975678477818263e+02 0 0 0
4782 192 3 0.0000000000000000e+00 -2.2987103688946249e+01 -4.3605350654186822e+01 -1.5793695955156846e+02 0 0 0
2795 112 4 0.0000000000000000e+00 1.1743725569497618e+01 -3.9412114687904491e+01 -1.5434993538339072e+02 0 0 0
2796 112 4 0.0000000000000000e+00 1.3034059846884386e+01 -3.7543303841085034e+01 -1.6454216462394868e+02 0 0 0
3152 127 4 0.0000000000000000e+00 -1.2461134469008864e+02 -2.8096211140469890e+01 -1.5286218049668662e+02 0 0 0
2069 83 1 0.0000000000000000e+00 -6.9938652183474176e+01 -2.5836091209262253e+01 -1.5252072869016931e+02 0 0 0
2248 90 2 0.0000000000000000e+00 -5.0842008386295525e+01 -2.1477212271658029e+01 -1.5434880039727079e+02 0 0 0
2247 90 2 0.0000000000000000e+00 -4.2447177035651038e+01 -2.5930562968644711e+01 -1.5687383270285468e+02 0 0 0
4463 179 3 0.0000000000000000e+00 -3.4641012141804673e+01 -2.9364807021338422e+01 -1.6534590385826655e+02 0 0 0
2246 90 2 0.0000000000000000e+00 -3.2319973893023011e+01 -2.7403937641592528e+01 -1.5508695065573755e+02 0 0 0
2245 90 2 0.0000000000000000e+00 -2.4760663529821851e+01 -3.1979636269420876e+01 -1.5943648651953154e+02 0 0 0
460 19 2 0.0000000000000000e+00 1.2530871255171830e+01 -1.9537777042512129e+01 -1.6190380958158451e+02 0 0 0
459 19 2 0.0000000000000000e+00 7.9953266538328105e+00 -2.7566609181911840e+01 -1.5812442550228778e+02 0 0 0
3408 137 4 0.0000000000000000e+00 -5.6757797754507372e+01 -6.5591459007230464e+00 -1.6164116716539564e+02 0 0 0
2250 90 1 0.0000000000000000e+00 -6.6401780624880132e+01 -1.2242153926663134e+01 -1.5727623999840154e+02 0 0 0
2249 90 2 0.0000000000000000e+00 -5.8362752488964155e+01 -1.6079800618785903e+01 -1.5243876005863169e+02 0 0 0
3405 137 4 0.0000000000000000e+00 -3.3516075338180229e+01 -6.5686836828357462e+00 -1.6095727628954259e+02 0 0 0
3403 137 4 0.0000000000000000e+00 -2.1721508502226577e+01 -1.6878329177648585e+01 -1.5447020604829260e+02 0 0 0
3404 137 4 0.0000000000000000e+00 -2.4220980897409344e+01 -9.3363139049827790e+00 -1.6117301142987182e+02 0 0 0
410 17 2 0.0000000000000000e+00 -1.6173865657556838e+00 -1.4939472283391559e+01 -1.5925512033039254e+02 0 0 0
998 40 2 0.0000000000000000e+00 1.2436401994528017e+01 -1.0845320087229428e+01 -1.5687955489302655e+02 0 0 0
1846 74 2 0.0000000000000000e+00 -4.8815212553781926e+01 -1.0111170023587870e+02 -1.4537223051480879e+02 0 0 0
3269 131 3 0.0000000000000000e+00 1.1723422669662554e+01 -1.0557973502697011e+02 -1.3865295218154066e+02 0 0 0
2392 96 2 0.0000000000000000e+00 -8.9125606889738208e+01 -9.7025745933382225e+01 -1.4562573299153721e+02 0 0 0
2391 96 2 0.0000000000000000e+00 -9.6683658767887067e+01 -9.7055518861359545e+01 -1.3873140480985165e+02 0 0 0
4376 176 3 0.0000000000000000e+00 -7.7823838334441646e+01 -9.5209254915715150e+01 -1.4341370753886847e+02 0 0 0
1827 74 2 0.0000000000000000e+00 1.6997248151963202e+00 -9.1672092828460634e+01 -1.5153395866277279e+02 0 0 0
1826 74 1 0.0000000000000000e+00 8.8712521661695458e+00 -9.6599949535380361e+01 -1.4620275716113747e+02 0 0 0
2394 96 1 0.0000000000000000e+00 -8.4623857880620790e+01 -8.6561988652451873e+01 -1.4305699952231262e+02 0 0 0
3274 131 4 0.0000000000000000e+00 -2.1540963943340387e+01 -8.5984988653328813e+01 -1.3912040703694564e+02 0 0 0
3275 131 3 0.0000000000000000e+00 -2.0800662208671518e+01 -7.6046801827250917e+01 -1.4223356334612077e+02 0 0 0
268 11 2 0.0000000000000000e+00 -1.2175029575714813e+01 -7.4500396880893092e+01 -1.4795816048983238e+02 0 0 0
3998 160 4 0.0000000000000000e+00 -1.2015229128866771e+02 -6.0469774596152703e+01 -1.4889386282515926e+02 0 0 0
3996 160 4 0.0000000000000000e+00 -1.0080620029884074e+02 -6.1051423214743217e+01 -1.4216822072867345e+02 0 0 0
3997 160 4 0.0000000000000000e+00 -1.1000850540444593e+02 -6.0195933388727624e+01 -1.4708158165635146e+02 0 0 0
2075 83 1 0.0000000000000000e+00 -8.8862680005463730e+01 -6.2531348765452776e+01 -1.4662514233560108e+02 0 0 0
3164 127 4 0.0000000000000000e+00 -8.2340426984908987e+01 -6.9886006391262356e+01 -1.4554301664211567e+02 0 0 0
4459 179 4 0.0000000000000000e+00 -4.1780231226425173e+01 -6.4251032940623261e+01 -1.4953227705685887e+02 0 0 0
4458 179 4 0.0000000000000000e+00 -3.3560431853890179e+01 -7.0179658553208952e+01 -1.4904699705323898e+02 0 0 0
4457 179 3 0.0000000000000000e+00 -2.4949423523814612e+01 -6.5049343152825642e+01 -1.4873573106226840e+02 0 0 0
1833 74 2 0.0000000000000000e+00 -2.1015371800695842e+01 -6.4566354502274507e+01 -1.3914362560056392e+02 0 0 0
1832 74 1 0.0000000000000000e+00 -1.4224207978250021e+01 -6.3282341836196352e+01 -1.4667612742262907e+02 0 0 0
267 11 2 0.0000000000000000e+00 -5.6110174865224574e+00 -6.8704895752193465e+01 -1.4320368219191781e+02 0 0 0
54 3 2 0.0000000000000000e+00 1.0342462598342941e+01 -6.7072777244712896e+01 -1.4436448024012307e+02 0 0 0
2074 83 2 0.0000000000000000e+00 -9.3404676122298881e+01 -5.3627721513324396e+01 -1.4756211798247634e+02 0 0 0
3066 123 4 0.0000000000000000e+00 -5.0926487529851386e+01 -5.7889898645837583e+01 -1.4435354490280918e+02 0 0 0
4455 179 4 0.0000000000000000e+00 -2.8242209516467110e+01 -4.5877415775818243e+01 -1.4340939527884362e+02 0 0 0
4456 179 4 0.0000000000000000e+00 -2.4878980472938036e+01 -5.4952147947094161e+01 -1.4711407058058751e+02 0 0 0
1460 59 2 0.0000000000000000e+00 -5.1528886997857644e+00 -5.0111506979279646e+01 -1.4617894035925772e+02 0 0 0
55 3 2 0.0000000000000000e+00 1.0731925556674684e+01 -5.6648400530469644e+01 -1.4428971732682425e+02 0 0 0
2073 83 2 0.0000000000000000e+00 -9.7189586471648568e+01 -4.4574646009275845e+01 -1.4822456102673004e+02 0 0 0
2072 83 2 0.0000000000000000e+00 -9.1607516812541178e+01 -3.6316146882579666e+01 -1.4970983647611760e+02 0 0 0
2071 83 2 0.0000000000000000e+00 -8.2288821117769913e+01 -3.3685658252457188e+01 -1.5030470006696069e+02 0 0 0
2167 87 2 0.0000000000000000e+00 -8.0262795640989211e+01 -4.3615642052048806e+01 -1.4337466560418008e+02 0 0 0
4452 179 4 0.0000000000000000e+00 -5.5205488253809115e+01 -3.8894622090636027e+01 -1.4532493384841908e+02 0 0 0
4453 179 4 0.0000000000000000e+00 -4.7013336497765508e+01 -4.4151986180143318e+01 -1.4677396543435498e+02 0 0 0
4454 179 4 0.0000000000000000e+00 -3.7280806945363317e+01 -4.3009066009096124e+01 -1.4547369912320232e+02 0 0 0
4783 192 4 0.0000000000000000e+00 -1.7281957779321822e+01 -3.6882911280607082e+01 -1.5204288720701439e+02 0 0 0
457 19 1 0.0000000000000000e+00 -3.8563704394662239e+00 -3.3348686410409627e+01 -1.4287800320936503e+02 0 0 0
3151 127 3 0.0000000000000000e+00 -1.2956035282060787e+02 -2.1569524128209299e+01 -1.4705707914621996e+02 0 0 0
2376 96 1 0.0000000000000000e+00 -1.1913337869156484e+02 -2.1282806523956381e+01 -1.4370076745064981e+02 0 0 0
4451 179 3 0.0000000000000000e+00 -6.0433326087275141e+01 -3.2034244016538544e+01 -1.5108514179176476e+02 0 0 0
2068 83 2 0.0000000000000000e+00 -6.6351748754864246e+01 -1.9066665867603021e+01 -1.4612519634744339e+02 0 0 0
579 24 2 0.0000000000000000e+00 -4.2657681323360492e+01 -3.1293984681353457e+01 -1.4342626158451151e+02 0 0 0
578 24 2 0.0000000000000000e+00 -4.3185411143852129e+01 -2.1821496789114189e+01 -1.4542670071155069e+02 0 0 0
4784 192 4 0.0000000000000000e+00 -1.8862808599205763e+01 -3.1273659186602604e+01 -1.4408555882871286e+02 0 0 0
3401 137 3 0.0000000000000000e+00 -5.4215090441013061e+00 -2.2373805313595835e+01 -1.4518736073125979e+02 0 0 0
458 19 2 0.0000000000000000e+00 2.4413522735442279e+00 -3.2104785833271158e+01 -1.5090552603818750e+02 0 0 0
2153 87 2 0.0000000000000000e+00 1.1997179331340664e+01 -2.9448208181479110e+01 -1.4173631656331352e+02 0 0 0
3626 146 3 0.0000000000000000e+00 -6.6238841083729753e+01 -7.3590647593649097e+00 -1.4644214935093157e+02 0 0 0
577 24 2 0.0000000000000000e+00 -4.1968702016897488e+01 -1.0917628785681874e+01 -1.4381690762493716e+02 0 0 0
3402 137 4 0.0000000000000000e+00 -1.2916565450674371e+01 -1.6866572027780965e+01 -1.5016123909965302e+02 0 0 0
411 17 2 0.0000000000000000e+00 3.7677779859164788e+00 -1.7627845468668852e+01 -1.5096446543427945e+02 0 0 0
412 17 2 0.0000000000000000e+00 9.0576860558412591e+00 -1.7355662842399973e+01 -1.4248780179825729e+02 0 0 0
996 40 2 0.0000000000000000e+00 1.0922765534955090e+00 -8.8721510734615201e+00 -1.4066231241428602e+02 0 0 0
997 40 2 0.0000000000000000e+00 5.7068445647414316e+00 -8.5712042662470704e+00 -1.4974612426152373e+02 0 0 0
251 11 1 0.0000000000000000e+00 -8.0177545754985800e+01 -1.1700600319187404e+02 -1.2649369684220973e+02 0 0 0
68 3 2 0.0000000000000000e+00 1.3728390499374107e+01 -1.1752651257103493e+02 -1.2973021477165139e+02 0 0 0
4151 167 3 0.0000000000000000e+00 -7.1425315425022731e+01 -1.1007059346627918e+02 -1.2723611089912525e+02 0 0 0
4152 167 4 0.0000000000000000e+00 -7.3458353477031750e+01 -1.0073851198437937e+02 -1.3047690989402730e+02 0 0 0
3272 131 4 0.0000000000000000e+00 -1.4745509200268579e+01 -1.0152713904257156e+02 -1.2846317459451615e+02 0 0 0
3271 131 4 0.0000000000000000e+00 -5.8379457150340519e+00 -1.0614952872125632e+02 -1.3014489988614127e+02 0 0 0
3270 131 4 0.0000000000000000e+00 1.9975973858143987e+00 -1.0691610905468913e+02 -1.3678109412754071e+02 0 0 0
3171 127 4 0.0000000000000000e+00 -1.1601568917895170e+02 -9.6033741150397788e+01 -1.2493676568389012e+02 0 0 0
2390 96 2 0.0000000000000000e+00 -9.7914167602861895e+01 -9.7131373276863712e+01 -1.2863372341172911e+02 0 0 0
2396 96 2 0.0000000000000000e+00 -8.5532639280333441e+01 -9.9634730413170743e+01 -1.2938626445158408e+02 0 0 0
2395 96 2 0.0000000000000000e+00 -8.6516603928172458e+01 -9.0580509097861025e+01 -1.3394248106561523e+02 0 0 0
4377 176 4 0.0000000000000000e+00 -7.3513462652298529e+01 -8.8383543053072074e+01 -1.3743574680688030e+02 0 0 0
4153 167 4 0.0000000000000000e+00 -7.4894948641513395e+01 -9.1094859586519902e+01 -1.2643640277613204e+02 0 0 0
1845 74 2 0.0000000000000000e+00 -5.0808222366938153e+01 -9.5994953881331895e+01 -1.3717256712303575e+02 0 0 0
3526 142 3 0.0000000000000000e+00 -4.2664055582062126e+01 -8.9129414228755664e+01 -1.2733339958219571e+02 0 0 0
3527 142 4 0.0000000000000000e+00 -3.8346339993133419e+01 -9.2754747618190322e+01 -1.3523124144903272e+02 0 0 0
3528 142 4 0.0000000000000000e+00 -3.5997393269860837e+01 -9.9234857522622832e+01 -1.2788011296911503e+02 0 0 0
3273 131 4 0.0000000000000000e+00 -1.7931289975618824e+01 -9.4676757546460465e+01 -1.3520728470229733e+02 0 0 0
3268 131 4 0.0000000000000000e+00 1.3227014580348714e+01 -9.6028339720379037e+01 -1.3692359221980254e+02 0 0 0
3170 127 4 0.0000000000000000e+00 -1.1569814826001839e+02 -8.5039612841082672e+01 -1.2587481149013739e+02 0 0 0
3169 127 3 0.0000000000000000e+00 -1.0759020679226668e+02 -7.9187777769137824e+01 -1.2542522487137946e+02 0 0 0
3167 127 4 0.0000000000000000e+00 -8.9241039768621548e+01 -7.8150828177871603e+01 -1.2583666254866881e+02 0 0 0
3166 127 4 0.0000000000000000e+00 -7.9950240619096377e+01 -7.6248409923365003e+01 -1.2750585137842164e+02 0 0 0
4378 176 4 0.0000000000000000e+00 -6.8782815837572954e+01 -8.0458592201103329e+01 -1.3379120763952815e+02 0 0 0
4379 176 4 0.0000000000000000e+00 -6.6191392449125246e+01 -7.4150221289186447e+01 -1.2609250688283866e+02 0 0 0
1844 74 1 0.0000000000000000e+00 -5.1158656999198541e+01 -8.6562452024779802e+01 -1.3460506712755742e+02 0 0 0
1843 74 2 0.0000000000000000e+00 -5.4220937138129571e+01 -7.8696916200887955e+01 -1.2945905060895799e+02 0 0 0
3079 124 4 0.0000000000000000e+00 -3.4799459950716205e+01 -7.7906979822579501e+01 -1.2899466943279654e+02 0 0 0
3265 131 4 0.0000000000000000e+00 3.6186147288905799e+00 -7.3926324503299583e+01 -1.3354249258666755e+02 0 0 0
3266 131 4 0.0000000000000000e+00 1.2903957657566963e+01 -7.7999305240004830e+01 -1.3511886481127360e+02 0 0 0
3995 160 4 0.0000000000000000e+00 -9.5202370150703899e+01 -6.0095938336311647e+01 -1.3353363070230893e+02 0 0 0
586 24 2 0.0000000000000000e+00 -8.5429093620589555e+01 -6.5463543714356376e+01 -1.2610344709611671e+02 0 0 0
3165 127 4 0.0000000000000000e+00 -8.2123757582185206e+01 -7.0628249522051519e+01 -1.3536564688550536e+02 0 0 0
584 24 2 0.0000000000000000e+00 -6.7614364770750583e+01 -6.4155107873870705e+01 -1.2779457890750118e+02 0 0 0
1842 74 2 0.0000000000000000e+00 -4.8133169473059809e+01 -7.1466512465499008e+01 -1.2567384426868968e+02 0 0 0
3067 123 4 0.0000000000000000e+00 -5.0682985052166714e+01 -5.9646570762118067e+01 -1.3452743216106225e+02 0 0 0
3080 124 4 0.0000000000000000e+00 -2.9089759610990605e+01 -7.0841473971246813e+01 -1.2454569043377803e+02 0 0 0
266 11 2 0.0000000000000000e+00 -3.3408975839570818e+00 -6.7049490686366710e+01 -1.3363170178475988e+02 0 0 0
265 11 2 0.0000000000000000e+00 -1.0336735992931766e+01 -6.7423182554643859e+01 -1.2633321092036050e+02 0 0 0
3264 131 4 0.0000000000000000e+00 8.0663049658968085e+00 -6.5140458556610980e+01 -1.3329958035337319e+02 0 0 0
3994 160 3 0.0000000000000000e+00 -9.4939202361320795e+01 -5.5059637792184304e+01 -1.2514098329589677e+02 0 0 0
3993 160 4 0.0000000000000000e+00 -8.5007156627581807e+01 -5.4194689135832789e+01 -1.2635854278652890e+02 0 0 0
3992 160 4 0.0000000000000000e+00 -7.7822741727949420e+01 -4.6632213377861667e+01 -1.2632058313664429e+02 0 0 0
583 24 2 0.0000000000000000e+00 -6.3046490381776152e+01 -5.7196447659040984e+01 -1.3340157712579020e+02 0 0 0
582 24 1 0.0000000000000000e+00 -5.7472107232304516e+01 -4.9933777386775013e+01 -1.2888786275108794e+02 0 0 0
3068 123 4 0.0000000000000000e+00 -5.5573409507289952e+01 -5.9372283314713556e+01 -1.2584500609186132e+02 0 0 0
581 24 2 0.0000000000000000e+00 -4.7795528280855400e+01 -4.6732065357535376e+01 -1.3069397745026737e+02 0 0 0
1834 74 2 0.0000000000000000e+00 -2.0398655680739061e+01 -5.8083010740688387e+01 -1.3183376613146945e+02 0 0 0
1835 74 2 0.0000000000000000e+00 -2.4170032174069259e+01 -4.9617137025687803e+01 -1.2749521391317641e+02 0 0 0
1461 59 2 0.0000000000000000e+00 -8.2649994232308739e+00 -5.5166020975697620e+01 -1.3802154828041108e+02 0 0 0
1463 59 1 0.0000000000000000e+00 6.5012434148949030e+00 -5.6167536072078470e+01 -1.2522368159344086e+02 0 0 0
3263 131 3 0.0000000000000000e+00 1.0779007074299416e+01 -5.5751426044056295e+01 -1.3545249242476802e+02 0 0 0
1462 59 2 0.0000000000000000e+00 9.6891964290956212e-01 -5.6733807725022785e+01 -1.3387003518302140e+02 0 0 0
1981 80 2 0.0000000000000000e+00 -1.1057751249912974e+02 -3.9469683774972999e+01 -1.2456973436949501e+02 0 0 0
1980 80 2 0.0000000000000000e+00 -1.0334906954416155e+02 -3.7130760827244842e+01 -1.3138286074060881e+02 0 0 0
1979 80 2 0.0000000000000000e+00 -9.3801236501304174e+01 -3.5596621285929416e+01 -1.3299736944920110e+02 0 0 0
1978 80 2 0.0000000000000000e+00 -8.7262561759908237e+01 -3.4434166701683260e+01 -1.2498555773517896e+02 0 0 0
2166 87 2 0.0000000000000000e+00 -7.8992632749179919e+01 -3.6852376145135530e+01 -1.3655887084775173e+02 0 0 0
2165 87 2 0.0000000000000000e+00 -6.9946311708678934e+01 -3.2435633571108362e+01 -1.3622535779143112e+02 0 0 0
580 24 2 0.0000000000000000e+00 -4.4351362793063146e+01 -3.8361562023417243e+01 -1.3617295922603091e+02 0 0 0
3251 131 3 0.0000000000000000e+00 -4.7277231206569212e+01 -3.4469813611582346e+01 -1.2605162198318899e+02 0 0 0
1836 74 2 0.0000000000000000e+00 -3.2906612298420946e+01 -4.4525937242715599e+01 -1.2730039501984631e+02 0 0 0
456 19 2 0.0000000000000000e+00 -9.2662797379220709e+00 -3.6023879046054276e+01 -1.3385704640295995e+02 0 0 0
455 19 2 0.0000000000000000e+00 -3.8064699306998073e+00 -4.2418938970595086e+01 -1.2873746115681035e+02 0 0 0
3262 131 4 0.0000000000000000e+00 9.4935429248168539e+00 -4.5192677372057801e+01 -1.3460825263434828e+02 0 0 0
3261 131 4 0.0000000000000000e+00 4.0661382204209682e+00 -3.7012205405967244e+01 -1.3200792140723527e+02 0 0 0
2377 96 2 0.0000000000000000e+00 -1.2618870804632796e+02 -2.4547744190344140e+01 -1.3764723324040486e+02 0 0 0
2378 96 2 0.0000000000000000e+00 -1.2567874385084069e+02 -3.1098116885169759e+01 -1.3024761622316109e+02 0 0 0
2067 83 2 0.0000000000000000e+00 -7.1059624374892962e+01 -1.9645868742699978e+01 -1.3692388682020550e+02 0 0 0
2066 83 2 0.0000000000000000e+00 -8.0507039280282839e+01 -1.9952709836188756e+01 -1.3511312805505426e+02 0 0 0
2164 87 2 0.0000000000000000e+00 -6.1065365790235383e+01 -2.8920060477366562e+01 -1.3245636805187195e+02 0 0 0
2163 87 1 0.0000000000000000e+00 -5.1612912807418212e+01 -2.5776098130764584e+01 -1.3213381157846362e+02 0 0 0
2162 87 2 0.0000000000000000e+00 -4.2280227610698880e+01 -2.2927824923261955e+01 -1.3011243654322439e+02 0 0 0
2161 87 2 0.0000000000000000e+00 -3.3525782096908507e+01 -2.2836763158019728e+01 -1.2608308838211458e+02 0 0 0
4785 192 4 0.0000000000000000e+00 -1.9807738782355393e+01 -2.2830538743788587e+01 -1.3796682339996497e+02 0 0 0
3260 131 4 0.0000000000000000e+00 -1.9172824797077126e+00 -2.9347449499584357e+01 -1.2947384093612817e+02 0 0 0
2154 87 2 0.0000000000000000e+00 9.7122799137141609e+00 -2.6989174200396501e+01 -1.3253093844251279e+02 0 0 0
2065 83 2 0.0000000000000000e+00 -8.4004814217344418e+01 -1.1257206319071532e+01 -1.3785454084816217e+02 0 0 0
3628 146 4 0.0000000000000000e+00 -6.7731287175403935e+01 -5.2780902515366765e+00 -1.2720645706660945e+02 0 0 0
4786 192 4 0.0000000000000000e+00 -1.9319377333469454e+01 -1.2840548134420342e+01 -1.3755351890903049e+02 0 0 0
995 40 2 0.0000000000000000e+00 -1.9221899310335583e-01 -1.3748795038607819e+01 -1.3200211947246379e+02 0 0 0
994 40 1 0.0000000000000000e+00 -4.8824311058748151e+00 -7.7651843779056646e+00 -1.2490236549112363e+02 0 0 0
4787 192 4 0.0000000000000000e+00 -1.2663889664167206e+01 -5.2425747984625186e+00 -1.3766332783926754e+02 0 0 0
252 11 2 0.0000000000000000e+00 -7.6776831392485249e+01 -1.1492776150548947e+02 -1.1773828736627928e+02 0 0 0
3173 127 4 0.0000000000000000e+00 -1.0722697320062997e+02 -1.0782965191273418e+02 -1.1455716721406547e+02 0 0 0
3172 127 4 0.0000000000000000e+00 -1.1001894721683007e+02 -1.0265549495700807e+02 -1.2238755326027017e+02 0 0 0
3175 127 3 0.0000000000000000e+00 -9.9709188269181112e+01 -1.0119418719874849e+02 -1.1580873513310331e+02 0 0 0
2397 96 2 0.0000000000000000e+00 -8.9028887251994192e+01 -1.0515711479550849e+02 -1.2107885768203994e+02 0 0 0
2398 96 2 0.0000000000000000e+00 -8.8033968944962766e+01 -1.0058044459343114e+02 -1.1192930180398369e+02 0 0 0
253 11 2 0.0000000000000000e+00 -7.3567419217126258e+01 -1.0523503336042040e+02 -1.1881488557482524e+02 0 0 0
3530 142 4 0.0000000000000000e+00 -2.2191968682311124e+01 -1.0240076686258382e+02 -1.1471849058323278e+02 0 0 0
4399 176 4 0.0000000000000000e+00 8.4898764697767142e+00 -1.0634055428833545e+02 -1.2012451016796842e+02 0 0 0
4398 176 4 0.0000000000000000e+00 4.1029126411297279e+00 -1.0192144798933494e+02 -1.1216448296874891e+02 0 0 0
2389 96 2 0.0000000000000000e+00 -1.0351129366859031e+02 -9.3515327427697187e+01 -1.2097843735643210e+02 0 0 0
2388 96 1 0.0000000000000000e+00 -1.0796731373459860e+02 -9.3974734821892042e+01 -1.1233112678846940e+02 0 0 0
4155 167 4 0.0000000000000000e+00 -8.5910691524131607e+01 -8.7347957756430048e+01 -1.1221699774649566e+02 0 0 0
254 11 2 0.0000000000000000e+00 -6.8295339057647922e+01 -9.7140293933007442e+01 -1.2064299827616327e+02 0 0 0
255 11 2 0.0000000000000000e+00 -6.8200869458842931e+01 -8.7188382964836904e+01 -1.1876247039194593e+02 0 0 0
3529 142 4 0.0000000000000000e+00 -2.9451249453287875e+01 -9.9401888633083360e+01 -1.2097180859125258e+02 0 0 0
3168 127 4 0.0000000000000000e+00 -9.8544805961527587e+01 -7.7747688285111082e+01 -1.2097763946066335e+02 0 0 0
2385 96 2 0.0000000000000000e+00 -9.2383526853672066e+01 -7.5064790002210458e+01 -1.1318704305573186e+02 0 0 0
4154 167 4 0.0000000000000000e+00 -8.1611209085124116e+01 -8.4647458829699261e+01 -1.2103769483327279e+02 0 0 0