LAMMPS data file via write_data, version 5 Jun 2019, timestep = 390000000

5000 atoms
4 atom types
5292 bonds
3 bond types
4600 angles
2 angle types

-2.5000000000000000e+02 2.5000000000000000e+02 xlo xhi
-2.5000000000000000e+02 2.5000000000000000e+02 ylo yhi
-2.5000000000000000e+02 2.5000000000000000e+02 zlo zhi

Masses

1 1000
2 1000
3 1000
4 1000

Pair Coeffs # lj/cut

1 0.18 10
2 0.18 10
3 0.18 10
4 0.18 10

Bond Coeffs # harmonic

1 3 10
2 3 10
3 3 11.22

Angle Coeffs # cosine

1 2
2 2

Atoms # full

4780 192 4 0.0000000000000000e+00 -4.4061612799504864e+01 -4.6582225144489620e+01 -1.6914775099587277e+02 0 0 0
4778 192 4 0.0000000000000000e+00 -2.6367515330695944e+01 -5.0526686676412154e+01 -1.7493067446705851e+02 0 0 0
4777 192 4 0.0000000000000000e+00 -1.8222518801085716e+01 -5.6449285653929614e+01 -1.7163410059688320e+02 0 0 0
4779 192 4 0.0000000000000000e+00 -3.4486568015008793e+01 -4.5078888095420083e+01 -1.7336913853265887e+02 0 0 0
3066 123 4 0.0000000000000000e+00 -9.8197120501357560e+01 -7.4709646356736584e+01 -1.5663418693262577e+02 0 0 0
1850 74 1 0.0000000000000000e+00 -1.2320925019698178e+01 -7.3385451165324056e+01 -1.6850352431984177e+02 0 0 0
1849 74 2 0.0000000000000000e+00 -1.2282105125968808e+01 -7.5638533129762095e+01 -1.5880179163529439e+02 0 0 0
3065 123 4 0.0000000000000000e+00 -9.1698666291404905e+01 -6.7352541733844077e+01 -1.5818137398610946e+02 0 0 0
271 11 2 0.0000000000000000e+00 -4.9454475137184787e+01 -6.7026047918357762e+01 -1.5750536952693028e+02 0 0 0
4776 192 3 0.0000000000000000e+00 -1.4237512605161426e+01 -6.2606625257322534e+01 -1.6569431839094756e+02 0 0 0
3064 123 4 0.0000000000000000e+00 -8.6131901017730470e+01 -5.9042064953106838e+01 -1.5989250273249971e+02 0 0 0
3063 123 3 0.0000000000000000e+00 -8.0881576120692529e+01 -5.1345608833557684e+01 -1.5595131023902476e+02 0 0 0
275 11 1 0.0000000000000000e+00 -6.9817067328331902e+01 -4.8147100369276615e+01 -1.5521290178253957e+02 0 0 0
1456 59 2 0.0000000000000000e+00 -4.7149370130479276e+01 -3.4381223364975874e+01 -1.6186075305089264e+02 0 0 0
4781 192 4 0.0000000000000000e+00 -4.5720699982447563e+01 -4.3784522738439279e+01 -1.5958617152832105e+02 0 0 0
1457 59 1 0.0000000000000000e+00 -3.8505667913860755e+01 -3.4519738633767354e+01 -1.5597409404723979e+02 0 0 0
1458 59 2 0.0000000000000000e+00 -3.5035741444988631e+01 -4.4031007226758433e+01 -1.5651684129408824e+02 0 0 0
1454 59 2 0.0000000000000000e+00 -6.3710883132524252e+01 -2.5224979921430663e+01 -1.6784389189427657e+02 0 0 0
1455 59 2 0.0000000000000000e+00 -5.5160535335675824e+01 -3.1772144152348822e+01 -1.6805066728773315e+02 0 0 0
4465 179 4 0.0000000000000000e+00 -8.1940681265822647e+01 -1.2194611492379297e+01 -1.6322260642850111e+02 0 0 0
4464 179 4 0.0000000000000000e+00 -7.3552460241951820e+01 -1.7572614611551646e+01 -1.6034166527302020e+02 0 0 0
3056 123 4 0.0000000000000000e+00 -8.6375096989308716e+01 -5.2712948161960078e+00 -1.5675159262114781e+02 0 0 0
1453 59 2 0.0000000000000000e+00 -6.1015943902115815e+01 -1.5441879375034663e+01 -1.6754983769711740e+02 0 0 0
1452 59 2 0.0000000000000000e+00 -5.9686283005843769e+01 -7.7326222300875598e+00 -1.6114282920817351e+02 0 0 0
2241 90 2 0.0000000000000000e+00 -4.1881020441186259e+01 -7.9767096322207918e+00 -1.5993675167643599e+02 0 0 0
3205 129 4 0.0000000000000000e+00 -1.2622010313246646e+01 -1.6644576723957435e+01 -1.6378615394750125e+02 0 0 0
3206 129 4 0.0000000000000000e+00 -1.4946211104305023e+01 -7.1740996030196724e+00 -1.6083201478612858e+02 0 0 0
3173 127 4 0.0000000000000000e+00 -1.1386395089816236e+02 -1.0869842312806310e+02 -1.4447660586119460e+02 0 0 0
3274 131 4 0.0000000000000000e+00 -5.2199361257141945e+01 -1.0180375640402468e+02 -1.4792218415396860e+02 0 0 0
3172 127 4 0.0000000000000000e+00 -1.1781243178474324e+02 -9.9307972474273512e+01 -1.4600621914188835e+02 0 0 0
3171 127 4 0.0000000000000000e+00 -1.2483462711321172e+02 -9.3027609622037446e+01 -1.4173701287945374e+02 0 0 0
3275 131 3 0.0000000000000000e+00 -5.4290255662313008e+01 -9.2546313985513379e+01 -1.5075153635710021e+02 0 0 0
3067 123 4 0.0000000000000000e+00 -1.0548911950632605e+02 -7.6199000740773997e+01 -1.5063081561428083e+02 0 0 0
3068 123 4 0.0000000000000000e+00 -9.8518175230544273e+01 -7.9423162615248657e+01 -1.4316826085716164e+02 0 0 0
270 11 2 0.0000000000000000e+00 -5.0250806561901811e+01 -7.5848623878174578e+01 -1.5374723781671304e+02 0 0 0
269 11 1 0.0000000000000000e+00 -4.9212643191295413e+01 -8.3260823464067272e+01 -1.4762040640304150e+02 0 0 0
268 11 2 0.0000000000000000e+00 -4.0078274232701538e+01 -8.3633621700598482e+01 -1.4410896464032575e+02 0 0 0
3160 127 4 0.0000000000000000e+00 -6.9205699960332751e+01 -4.9872502173268160e+01 -1.4272346937076364e+02 0 0 0
274 11 2 0.0000000000000000e+00 -6.0433929929930656e+01 -4.6907890897286173e+01 -1.5081672069382100e+02 0 0 0
273 11 2 0.0000000000000000e+00 -5.1624530987614783e+01 -5.1833808231360294e+01 -1.5205151905438873e+02 0 0 0
272 11 2 0.0000000000000000e+00 -4.4218533772960420e+01 -5.8549300259621845e+01 -1.5397001448495229e+02 0 0 0
1459 59 2 0.0000000000000000e+00 -3.2359146926449263e+01 -4.7480924887572428e+01 -1.4744188311379637e+02 0 0 0
1460 59 2 0.0000000000000000e+00 -2.4441806555404483e+01 -5.1605078003164955e+01 -1.4343880145776754e+02 0 0 0
2376 96 1 0.0000000000000000e+00 -1.1604074003141210e+02 -3.8487547431444021e+01 -1.4552683380212636e+02 0 0 0
3062 123 4 0.0000000000000000e+00 -7.8605896674076050e+01 -4.4506120462546825e+01 -1.4926023651541064e+02 0 0 0
3061 123 4 0.0000000000000000e+00 -7.5103121529619884e+01 -3.6181066080525163e+01 -1.4552944213221338e+02 0 0 0
4782 192 3 0.0000000000000000e+00 -4.7368688942128657e+01 -3.8872929137252086e+01 -1.5061820210906939e+02 0 0 0
4461 179 4 0.0000000000000000e+00 -5.7207738138458836e+01 -3.5258194404927877e+01 -1.4223051642882439e+02 0 0 0
3060 123 4 0.0000000000000000e+00 -7.5650621504736378e+01 -2.6312880122439427e+01 -1.4435289341537325e+02 0 0 0
4463 179 3 0.0000000000000000e+00 -6.8128449062295005e+01 -2.3032815306921716e+01 -1.5359331207989118e+02 0 0 0
4462 179 4 0.0000000000000000e+00 -6.1593820463921894e+01 -2.7986731084430172e+01 -1.4811709156644883e+02 0 0 0
4783 192 4 0.0000000000000000e+00 -4.8505891438932636e+01 -3.0847335625652086e+01 -1.4484992289950210e+02 0 0 0
3204 129 4 0.0000000000000000e+00 -1.5045706318126912e+01 -1.9783726603055324e+01 -1.5464624779576675e+02 0 0 0
2244 90 1 0.0000000000000000e+00 -6.3572745515745879e+01 -1.8667927418691509e+01 -1.4440865084922197e+02 0 0 0
2243 90 2 0.0000000000000000e+00 -5.5406307409501750e+01 -1.7858965401778651e+01 -1.5096782080169737e+02 0 0 0
2242 90 2 0.0000000000000000e+00 -4.5885679880889732e+01 -1.5035022837399657e+01 -1.5422164265950153e+02 0 0 0
3408 137 4 0.0000000000000000e+00 -5.5495094582338496e+01 -7.5502873667933121e+00 -1.4432606384811641e+02 0 0 0
3406 137 4 0.0000000000000000e+00 -3.6315588608958464e+01 -5.6434607002456536e+00 -1.4345728684713711e+02 0 0 0
3203 129 4 0.0000000000000000e+00 -1.1499087476159845e+01 -1.5113744276833808e+01 -1.4549285728208363e+02 0 0 0
3174 127 4 0.0000000000000000e+00 -1.1395344073938243e+02 -1.1574118359970761e+02 -1.3740440861419864e+02 0 0 0
2393 96 2 0.0000000000000000e+00 -6.9026492123116441e+01 -1.2102606900219976e+02 -1.2909851755382059e+02 0 0 0
3071 123 4 0.0000000000000000e+00 -8.8459170757315988e+01 -1.0142724471654323e+02 -1.3032540862794716e+02 0 0 0
3273 131 4 0.0000000000000000e+00 -4.6041851231733744e+01 -1.0143172747607032e+02 -1.3963486217583423e+02 0 0 0
3272 131 4 0.0000000000000000e+00 -3.8301519430230037e+01 -1.0465477592494676e+02 -1.3354075768909115e+02 0 0 0
3170 127 4 0.0000000000000000e+00 -1.2777886795234348e+02 -9.2320722655094897e+01 -1.3188369612073211e+02 0 0 0
587 24 2 0.0000000000000000e+00 -1.1795900628489952e+02 -8.8872234457983566e+01 -1.2874723962450500e+02 0 0 0
3070 123 4 0.0000000000000000e+00 -9.1219853424547324e+01 -9.2485194873034615e+01 -1.3492146415306252e+02 0 0 0
579 24 2 0.0000000000000000e+00 -7.5352770353506870e+01 -9.3016798219908722e+01 -1.3905887300855346e+02 0 0 0
578 24 2 0.0000000000000000e+00 -8.3302077467303093e+01 -8.7498954307798186e+01 -1.4066950640351129e+02 0 0 0
580 24 2 0.0000000000000000e+00 -7.3424474927408539e+01 -8.8241983285703071e+01 -1.3017474632946082e+02 0 0 0
586 24 2 0.0000000000000000e+00 -1.1681531097145658e+02 -8.5962014945489074e+01 -1.3835440199879520e+02 0 0 0
585 24 2 0.0000000000000000e+00 -1.1182435407012619e+02 -7.8000924328586308e+01 -1.3459197714470753e+02 0 0 0
577 24 2 0.0000000000000000e+00 -8.9184048747369047e+01 -7.9342143073533762e+01 -1.4087506486925463e+02 0 0 0
3069 123 3 0.0000000000000000e+00 -9.6473079969467705e+01 -8.3754664085327377e+01 -1.3417310942605886e+02 0 0 0
582 24 1 0.0000000000000000e+00 -8.8145541829907259e+01 -7.9745910957167837e+01 -1.2824030113700059e+02 0 0 0
267 11 2 0.0000000000000000e+00 -3.6079611330197025e+01 -8.6530534542126802e+01 -1.3513611152125839e+02 0 0 0
3265 131 4 0.0000000000000000e+00 -8.3160873372508544e+00 -7.3546315667354548e+01 -1.3982273872232400e+02 0 0 0
576 24 1 0.0000000000000000e+00 -8.8758202409853297e+01 -6.9078808599380864e+01 -1.4028441466717092e+02 0 0 0
3163 127 3 0.0000000000000000e+00 -8.7481822935889724e+01 -6.6622839830512774e+01 -1.2891837369318978e+02 0 0 0
3162 127 4 0.0000000000000000e+00 -7.8723168328933568e+01 -6.3318723943718979e+01 -1.3227707057520561e+02 0 0 0
3264 131 4 0.0000000000000000e+00 -7.2116864697680807e+00 -6.5716016773367897e+01 -1.3291021774963014e+02 0 0 0
2378 96 2 0.0000000000000000e+00 -1.2466057490496721e+02 -4.9718474043841809e+01 -1.3239496198737001e+02 0 0 0
3161 127 4 0.0000000000000000e+00 -7.3743250491664611e+01 -5.7213087067444810e+01 -1.3811727346927819e+02 0 0 0
4459 179 4 0.0000000000000000e+00 -4.9560522341298700e+01 -5.1805380911773973e+01 -1.3549239933999155e+02 0 0 0
1461 59 2 0.0000000000000000e+00 -2.0506471639907417e+01 -5.7102430135421272e+01 -1.3601148957120833e+02 0 0 0
2377 96 2 0.0000000000000000e+00 -1.2220966405351288e+02 -4.5521414241597981e+01 -1.4125661742161796e+02 0 0 0
3151 127 3 0.0000000000000000e+00 -1.0773565336257420e+02 -4.0855945787909761e+01 -1.3859508728874030e+02 0 0 0
3152 127 4 0.0000000000000000e+00 -1.0999477720894689e+02 -4.3836468320953934e+01 -1.2906174288694319e+02 0 0 0
3159 127 4 0.0000000000000000e+00 -6.4633608601213723e+01 -4.1056810283402513e+01 -1.4001668826180358e+02 0 0 0
3158 127 4 0.0000000000000000e+00 -6.4352033738920710e+01 -4.0369908348989803e+01 -1.2950055211802555e+02 0 0 0
4460 179 4 0.0000000000000000e+00 -5.3947744387739078e+01 -4.2997338677781819e+01 -1.3693720740791596e+02 0 0 0
4784 192 4 0.0000000000000000e+00 -4.8450745564204652e+01 -2.1916818884495267e+01 -1.3951936204890853e+02 0 0 0
3402 137 4 0.0000000000000000e+00 -7.7780092096934963e+00 -2.6534929458162921e+01 -1.3440368056186645e+02 0 0 0
3403 137 4 0.0000000000000000e+00 -1.5545015645855431e+01 -2.0355510971274217e+01 -1.3420557928396369e+02 0 0 0
3059 123 4 0.0000000000000000e+00 -7.3257580544588180e+01 -1.7878219031548863e+01 -1.3907835734880186e+02 0 0 0
3058 123 4 0.0000000000000000e+00 -7.8609786426273672e+01 -8.9424932312260879e+00 -1.3892113844565998e+02 0 0 0
2245 90 2 0.0000000000000000e+00 -6.5432232762033394e+01 -1.2876138865943469e+01 -1.3672671423504747e+02 0 0 0
2246 90 2 0.0000000000000000e+00 -6.7423926070005692e+01 -9.7739876086621020e+00 -1.2818752587504193e+02 0 0 0
4785 192 4 0.0000000000000000e+00 -5.0442327350461014e+01 -1.2480265504393525e+01 -1.3677848060920309e+02 0 0 0
4786 192 4 0.0000000000000000e+00 -4.6652178220360625e+01 -6.2259258126707353e+00 -1.3068190969726572e+02 0 0 0
3404 137 4 0.0000000000000000e+00 -2.1759099793599347e+01 -1.2689198362613746e+01 -1.3250912253537589e+02 0 0 0
3405 137 4 0.0000000000000000e+00 -2.7384675643910057e+01 -7.7123015657404990e+00 -1.3888176917425446e+02 0 0 0
459 19 2 0.0000000000000000e+00 -7.3268779178149561e+00 -1.3770556987599848e+01 -1.3345695388662776e+02 0 0 0
2394 96 1 0.0000000000000000e+00 -6.7820602886431956e+01 -1.2767107871011885e+02 -1.2206649043696515e+02 0 0 0
2387 96 2 0.0000000000000000e+00 -1.1869177468073234e+02 -1.1470962995610903e+02 -1.1964726519803085e+02 0 0 0
3175 127 3 0.0000000000000000e+00 -1.1168751341830881e+02 -1.1965500840251978e+02 -1.2797737842927805e+02 0 0 0
2388 96 1 0.0000000000000000e+00 -1.1303117471766497e+02 -1.2299373907847293e+02 -1.1722026591222901e+02 0 0 0
2389 96 2 0.0000000000000000e+00 -1.0327075252210069e+02 -1.2026286606788233e+02 -1.1790461896039743e+02 0 0 0
2390 96 2 0.0000000000000000e+00 -9.4252074568640595e+01 -1.2100565543010569e+02 -1.2302673586204182e+02 0 0 0
2391 96 2 0.0000000000000000e+00 -8.5683490993976378e+01 -1.1818507147463062e+02 -1.2782448639121172e+02 0 0 0
4376 176 3 0.0000000000000000e+00 -7.1637793622567528e+01 -1.1759423960795566e+02 -1.1915880907963327e+02 0 0 0
589 24 2 0.0000000000000000e+00 -1.2934397258107558e+02 -1.0053880114768957e+02 -1.1895626367667612e+02 0 0 0
2386 96 2 0.0000000000000000e+00 -1.1968186146190965e+02 -1.0495512582698552e+02 -1.1764071586106292e+02 0 0 0
3072 123 4 0.0000000000000000e+00 -9.1200559562778295e+01 -1.0527766654936451e+02 -1.2117823475435961e+02 0 0 0
2392 96 2 0.0000000000000000e+00 -7.6552791075969992e+01 -1.1394886117387807e+02 -1.2729067130673873e+02 0 0 0
4377 176 4 0.0000000000000000e+00 -6.7557751672064825e+01 -1.0843265057166923e+02 -1.2084314844876005e+02 0 0 0
4378 176 4 0.0000000000000000e+00 -5.9428997518637694e+01 -1.0321674109045827e+02 -1.2434685812797025e+02 0 0 0
4379 176 4 0.0000000000000000e+00 -5.0092019307534990e+01 -1.0433394023127993e+02 -1.2158500448222060e+02 0 0 0
1841 74 2 0.0000000000000000e+00 -1.4277045987799262e+01 -1.0698683899719921e+02 -1.1743342933070637e+02 0 0 0
1842 74 2 0.0000000000000000e+00 -5.9140248962585122e+00 -1.1004399557914280e+02 -1.2181413425165357e+02 0 0 0
1989 80 2 0.0000000000000000e+00 -1.5944894562460468e+02 -9.1674951713590858e+01 -1.1666763376066551e+02 0 0 0
588 24 1 0.0000000000000000e+00 -1.2212765072285326e+02 -9.7291854285727808e+01 -1.2482073465840496e+02 0 0 0
3169 127 3 0.0000000000000000e+00 -1.2727081419443201e+02 -8.7381089670721238e+01 -1.2356737122024663e+02 0 0 0
3271 131 4 0.0000000000000000e+00 -3.3332538211952667e+01 -9.8073790896904200e+01 -1.2757856016019262e+02 0 0 0
3270 131 4 0.0000000000000000e+00 -2.4622254346788434e+01 -9.4519490471089554e+01 -1.2501260769638945e+02 0 0 0
3268 131 4 0.0000000000000000e+00 -6.6942759914127565e+00 -9.4467166132241701e+01 -1.2761331420499056e+02 0 0 0
3269 131 3 0.0000000000000000e+00 -1.5402887513993505e+01 -9.8595793764939785e+01 -1.2515331340421226e+02 0 0 0
1826 74 1 0.0000000000000000e+00 -1.5731700494365045e+01 -8.9654389545543111e+01 -1.1925083193546493e+02 0 0 0
3168 127 4 0.0000000000000000e+00 -1.2204087435291487e+02 -8.3721330058067920e+01 -1.1599241701950397e+02 0 0 0
584 24 2 0.0000000000000000e+00 -1.0520608594155202e+02 -7.6135270463891374e+01 -1.2762381426504669e+02 0 0 0
583 24 2 0.0000000000000000e+00 -9.6711946851053682e+01 -7.9275761259758625e+01 -1.2405974637012729e+02 0 0 0
581 24 2 0.0000000000000000e+00 -8.0625926564277933e+01 -8.5415114313049230e+01 -1.2366383001397045e+02 0 0 0
266 11 2 0.0000000000000000e+00 -3.0573706597721475e+01 -8.6838616565582825e+01 -1.2704059390288087e+02 0 0 0
265 11 2 0.0000000000000000e+00 -2.6188703868559369e+01 -8.4537790586489280e+01 -1.1831476667698072e+02 0 0 0
1827 74 2 0.0000000000000000e+00 -1.7565004628348987e+01 -8.1105799426271318e+01 -1.2367664159412480e+02 0 0 0
3166 127 4 0.0000000000000000e+00 -1.1124113612857575e+02 -7.0262801728085222e+01 -1.2033679460730404e+02 0 0 0
3165 127 4 0.0000000000000000e+00 -1.0567670737793172e+02 -6.5698186291441004e+01 -1.2715076107670076e+02 0 0 0
3164 127 4 0.0000000000000000e+00 -9.6212834071229580e+01 -6.8663526775918314e+01 -1.2633274858015373e+02 0 0 0
1831 74 2 0.0000000000000000e+00 -4.0594557043648486e+01 -6.0155494017562482e+01 -1.1900163855077018e+02 0 0 0
1828 74 2 0.0000000000000000e+00 -1.9084874466628087e+01 -7.0542427590523971e+01 -1.2390886510768696e+02 0 0 0
1829 74 2 0.0000000000000000e+00 -2.1652636709325925e+01 -6.1785152874608514e+01 -1.1965466215551433e+02 0 0 0
1830 74 2 0.0000000000000000e+00 -3.1120921862493677e+01 -6.1928738722882080e+01 -1.1568882945778057e+02 0 0 0
1463 59 1 0.0000000000000000e+00 -1.2048628623378704e+01 -6.3040280327479088e+01 -1.2029622797252362e+02 0 0 0
2380 96 2 0.0000000000000000e+00 -1.1574589909398259e+02 -5.6897845175278128e+01 -1.1651369412139961e+02 0 0 0
2379 96 2 0.0000000000000000e+00 -1.1884517404154933e+02 -5.4794770339367282e+01 -1.2562739474000314e+02 0 0 0
3155 127 4 0.0000000000000000e+00 -8.2858407039486337e+01 -4.6061443503249706e+01 -1.1749494966856726e+02 0 0 0
3156 127 4 0.0000000000000000e+00 -7.3316259598761363e+01 -4.6951828907549810e+01 -1.2125485847132035e+02 0 0 0
4457 179 3 0.0000000000000000e+00 -4.8647281491217036e+01 -5.0000385530570640e+01 -1.1714458747118736e+02 0 0 0
4458 179 4 0.0000000000000000e+00 -5.0437043090814910e+01 -5.4667748193481806e+01 -1.2597782559086431e+02 0 0 0
1462 59 2 0.0000000000000000e+00 -1.5506619913155419e+01 -5.6614041416596883e+01 -1.2731749278551226e+02 0 0 0
3262 131 4 0.0000000000000000e+00 -6.3286378029924517e+00 -5.0789239615671036e+01 -1.2055699704134324e+02 0 0 0
3153 127 4 0.0000000000000000e+00 -1.0235961704397008e+02 -4.3609347295452885e+01 -1.2233440408402171e+02 0 0 0
3154 127 4 0.0000000000000000e+00 -9.3494232649866447e+01 -4.4588604948968197e+01 -1.1756924604496447e+02 0 0 0
3157 127 3 0.0000000000000000e+00 -6.4889486070681926e+01 -4.1994981337481811e+01 -1.1949286357925658e+02 0 0 0
4456 179 4 0.0000000000000000e+00 -5.5084708084959935e+01 -4.3045815359058309e+01 -1.1574059400645555e+02 0 0 0
3401 137 3 0.0000000000000000e+00 -6.9122912604366800e+00 -3.2605157127589393e+01 -1.2640159642619564e+02 0 0 0
456 19 2 0.0000000000000000e+00 -1.4284855166278204e+01 -3.1737208275937441e+01 -1.1497777898956006e+02 0 0 0
457 19 1 0.0000000000000000e+00 -1.5989331967017177e+01 -2.6279528903524010e+01 -1.2337052145930045e+02 0 0 0
2061 83 2 0.0000000000000000e+00 -1.1610170324343683e+02 -1.0886693832189437e+01 -1.1522386534349441e+02 0 0 0
662 27 2 0.0000000000000000e+00 -3.3191840302801147e+01 -8.6343621454399955e+00 -1.2261732961690490e+02 0 0 0
458 19 2 0.0000000000000000e+00 -1.1628302895683868e+01 -1.7356909708626105e+01 -1.2555490896432288e+02 0 0 0
410 17 2 0.0000000000000000e+00 -1.2766427172258853e+01 -6.9637232401211531e+00 -1.1854687440369285e+02 0 0 0
2397 96 2 0.0000000000000000e+00 -6.4860353409795849e+01 -1.4583913490269120e+02 -1.0125026706544229e+02 0 0 0
2395 96 2 0.0000000000000000e+00 -6.2138340639420633e+01 -1.3122067951907636e+02 -1.1362943479094741e+02 0 0 0
2396 96 2 0.0000000000000000e+00 -6.3042574276966668e+01 -1.3815520322310400e+02 -1.0694497787725247e+02 0 0 0
1986 80 2 0.0000000000000000e+00 -1.4422506331834501e+02 -1.0415671793279053e+02 -1.0553384093680407e+02 0 0 0
590 24 2 0.0000000000000000e+00 -1.2586242260844323e+02 -1.0156284507549674e+02 -1.0972668124423076e+02 0 0 0
3074 123 4 0.0000000000000000e+00 -1.0450771876920972e+02 -1.0603125484421281e+02 -1.0659901374891903e+02 0 0 0
3073 123 4 0.0000000000000000e+00 -9.7375704940200308e+01 -1.0538424780217362e+02 -1.1304366135890932e+02 0 0 0
4380 176 4 0.0000000000000000e+00 -4.4480550540783149e+01 -1.0096091727935479e+02 -1.1433961593823727e+02 0 0 0
1840 74 2 0.0000000000000000e+00 -1.7761123290567511e+01 -1.0267564222177181e+02 -1.0898171952192457e+02 0 0 0
1988 80 1 0.0000000000000000e+00 -1.5709648580304750e+02 -9.0106399568146713e+01 -1.0688716759760601e+02 0 0 0
1987 80 2 0.0000000000000000e+00 -1.5168511484003386e+02 -9.7740641338304286e+01 -1.0383583730528119e+02 0 0 0
1985 80 2 0.0000000000000000e+00 -1.3926422713513787e+02 -9.7791132168107993e+01 -1.1143632235826846e+02 0 0 0
1984 80 2 0.0000000000000000e+00 -1.3128958231171814e+02 -9.2745954011520254e+01 -1.0971779620780076e+02 0 0 0
1983 80 2 0.0000000000000000e+00 -1.2197028814599085e+02 -9.3896002510940306e+01 -1.0667012581557168e+02 0 0 0
2385 96 2 0.0000000000000000e+00 -1.1228744396887251e+02 -9.9546815702422791e+01 -1.1305499916446884e+02 0 0 0
2384 96 2 0.0000000000000000e+00 -1.1342209364539130e+02 -8.9502472851969230e+01 -1.1102495238292308e+02 0 0 0
3991 160 4 0.0000000000000000e+00 -9.2862270423196563e+01 -8.9318245289167535e+01 -1.0897600632505089e+02 0 0 0
3990 160 4 0.0000000000000000e+00 -8.9618303433061371e+01 -9.7140472306159381e+01 -1.0252785836950039e+02 0 0 0
4381 176 4 0.0000000000000000e+00 -3.8712182425405572e+01 -9.5038614007114276e+01 -1.0795159807118658e+02 0 0 0
1839 74 2 0.0000000000000000e+00 -2.3251657405295706e+01 -9.4342025279204449e+01 -1.0762422842951744e+02 0 0 0
1838 74 1 0.0000000000000000e+00 -3.0615475768207762e+01 -8.7243899885224337e+01 -1.0877692962214878e+02 0 0 0
1990 80 2 0.0000000000000000e+00 -1.6261485908346464e+02 -8.3565075012753738e+01 -1.1234054258988182e+02 0 0 0
1991 80 2 0.0000000000000000e+00 -1.6783887820780765e+02 -8.3231527306437101e+01 -1.0413784283162101e+02 0 0 0
3167 127 4 0.0000000000000000e+00 -1.1719612571150213e+02 -7.5178652711234506e+01 -1.1408489162292152e+02 0 0 0
3993 160 4 0.0000000000000000e+00 -1.0318545112783248e+02 -7.3348586465707584e+01 -1.1137810979963376e+02 0 0 0
2383 96 2 0.0000000000000000e+00 -1.1030186949052174e+02 -8.1382943589010722e+01 -1.0602403673038025e+02 0 0 0
3992 160 4 0.0000000000000000e+00 -9.7729567341111263e+01 -8.1860786652276886e+01 -1.1357142076677422e+02 0 0 0
2173 87 2 0.0000000000000000e+00 -7.9504764631084953e+01 -7.5541931995680130e+01 -1.0930380034252497e+02 0 0 0
1837 74 2 0.0000000000000000e+00 -3.3228966165410981e+01 -7.7165687313084149e+01 -1.0673581834596474e+02 0 0 0
264 11 2 0.0000000000000000e+00 -2.0470317202870874e+01 -8.3842384336862125e+01 -1.0981015985150931e+02 0 0 0
2800 112 3 0.0000000000000000e+00 -1.7521869153854670e+01 -7.4590576095307895e+01 -1.0167606125135148e+02 0 0 0
263 11 1 0.0000000000000000e+00 -1.0884615026739780e+01 -8.2106723343176512e+01 -1.0653056672908126e+02 0 0 0
2381 96 2 0.0000000000000000e+00 -1.1450382499309609e+02 -6.1893394236951501e+01 -1.0773618858513400e+02 0 0 0
2382 96 1 0.0000000000000000e+00 -1.1090663499418842e+02 -7.0587469005796748e+01 -1.0412341029472356e+02 0 0 0
3994 160 3 0.0000000000000000e+00 -1.0396736496836084e+02 -6.4153047601929927e+01 -1.1057020940741265e+02 0 0 0
2171 87 2 0.0000000000000000e+00 -6.5028071485283945e+01 -6.1804183563631817e+01 -1.1453232213945080e+02 0 0 0
2172 87 2 0.0000000000000000e+00 -7.1558517909700868e+01 -6.9835983182651404e+01 -1.1286308476533871e+02 0 0 0
1836 74 2 0.0000000000000000e+00 -3.0898613164960658e+01 -6.7108432073163328e+01 -1.0620686815733563e+02 0 0 0
2799 112 4 0.0000000000000000e+00 -2.0055908154203660e+01 -6.9374893492781382e+01 -1.1018012852691130e+02 0 0 0
2798 112 4 0.0000000000000000e+00 -1.1969415656957317e+01 -6.3415583617990713e+01 -1.0757121923519587e+02 0 0 0
3995 160 4 0.0000000000000000e+00 -9.8765246070925130e+01 -5.5810059510767871e+01 -1.0695011730671365e+02 0 0 0
3996 160 4 0.0000000000000000e+00 -9.3304192779744440e+01 -4.8013675762534305e+01 -1.0356094834007405e+02 0 0 0
2170 87 2 0.0000000000000000e+00 -6.2067258322649543e+01 -5.2398724560435177e+01 -1.1264702064348849e+02 0 0 0
1832 74 1 0.0000000000000000e+00 -4.2704305028513524e+01 -5.6506209049181265e+01 -1.1000783980476973e+02 0 0 0
1834 74 2 0.0000000000000000e+00 -3.3264148386826129e+01 -5.3055492860869798e+01 -1.0234729508395301e+02 0 0 0
1835 74 2 0.0000000000000000e+00 -2.6453466746682274e+01 -5.8782852383125316e+01 -1.0708615394184581e+02 0 0 0
2169 87 1 0.0000000000000000e+00 -6.3014022643701146e+01 -4.2759657620868424e+01 -1.0827233921890156e+02 0 0 0
2168 87 2 0.0000000000000000e+00 -6.2195996242014694e+01 -3.2830299394131586e+01 -1.0478695460016176e+02 0 0 0
4455 179 4 0.0000000000000000e+00 -5.7030408407826336e+01 -3.3463135573152002e+01 -1.1416172887235288e+02 0 0 0
455 19 2 0.0000000000000000e+00 -1.1242966408395356e+01 -3.6924019728321973e+01 -1.0692623707103314e+02 0 0 0
3261 131 4 0.0000000000000000e+00 -5.0174770225400369e+00 -4.4720668207297905e+01 -1.1292662435900358e+02 0 0 0
2059 83 2 0.0000000000000000e+00 -1.1817861426964205e+02 -2.5282191587331749e+01 -1.1200084677872465e+02 0 0 0
2058 83 2 0.0000000000000000e+00 -1.1817504127386297e+02 -3.1041940538836283e+01 -1.0295399460456392e+02 0 0 0
4454 179 4 0.0000000000000000e+00 -6.3517191315581627e+01 -2.5769614472634689e+01 -1.1408140860096211e+02 0 0 0
2167 87 2 0.0000000000000000e+00 -6.1521899415486658e+01 -2.2792539924725226e+01 -1.0343439912355272e+02 0 0 0
4453 179 4 0.0000000000000000e+00 -7.0915021854413226e+01 -1.9221432848607140e+01 -1.1178004612462098e+02 0 0 0
1171 47 2 0.0000000000000000e+00 -3.6105920103870105e+01 -3.2378028202486057e+01 -1.0220382625203901e+02 0 0 0
412 17 2 0.0000000000000000e+00 -7.3174470777171186e+00 -2.1472279072560802e+01 -1.1185392042721662e+02 0 0 0
2060 83 2 0.0000000000000000e+00 -1.1983141165552728e+02 -1.6721381486734000e+01 -1.0785107525255791e+02 0 0 0
2069 83 1 0.0000000000000000e+00 -9.4399840858074299e+01 -1.2013757498748781e+01 -1.0544467339532132e+02 0 0 0
4451 179 3 0.0000000000000000e+00 -8.3977404491164165e+01 -1.4258108412549808e+01 -1.0205900754335883e+02 0 0 0
2068 83 2 0.0000000000000000e+00 -8.6281509059466899e+01 -7.0486367545492437e+00 -1.0858539231374142e+02 0 0 0
4452 179 4 0.0000000000000000e+00 -8.0694055558630012e+01 -1.6422042458719545e+01 -1.1116949636283522e+02 0 0 0
2166 87 2 0.0000000000000000e+00 -6.2055812321219577e+01 -1.2756173226475308e+01 -1.0498165180273193e+02 0 0 0
1174 47 2 0.0000000000000000e+00 -2.9226791105328239e+01 -6.0055866032626897e+00 -1.0302297881254320e+02 0 0 0
1173 47 2 0.0000000000000000e+00 -3.0926651727720419e+01 -1.5953415213896211e+01 -1.0309189772416319e+02 0 0 0
2808 113 4 0.0000000000000000e+00 -6.2362565379410055e+00 -9.8137306732503458e+00 -1.1209061064582409e+02 0 0 0
411 17 2 0.0000000000000000e+00 -1.5379701396848507e+01 -1.4678441908503052e+01 -1.1345955866654809e+02 0 0 0
2809 113 4 0.0000000000000000e+00 -1.2347195580352121e+01 -7.1446030825209448e+00 -1.0538775252725108e+02 0 0 0
2400 96 1 0.0000000000000000e+00 -5.5938879174268756e+01 -1.7153362465260727e+02 -9.4236516325589577e+01 0 0 0
2399 96 2 0.0000000000000000e+00 -6.4312111195985381e+01 -1.6528108706245013e+02 -9.4798752730591673e+01 0 0 0
2398 96 2 0.0000000000000000e+00 -6.6185447263025793e+01 -1.5504294021846729e+02 -9.6626175361527899e+01 0 0 0
258 11 2 0.0000000000000000e+00 -1.1359435222144507e+01 -1.2335552972302808e+02 -9.0244841443523100e+01 0 0 0
259 11 2 0.0000000000000000e+00 -7.7937989505261527e+00 -1.1488079067598564e+02 -9.4959798994835722e+01 0 0 0
591 24 2 0.0000000000000000e+00 -1.2350227868931724e+02 -1.0256196418407765e+02 -9.9247038688683801e+01 0 0 0
3075 123 3 0.0000000000000000e+00 -1.1232814423721065e+02 -1.0743540699597904e+02 -9.9734696302418499e+01 0 0 0
3989 160 4 0.0000000000000000e+00 -8.6900603704371690e+01 -1.0196189033209997e+02 -9.4410983724167963e+01 0 0 0
1657 67 1 0.0000000000000000e+00 -5.4677212098017350e+01 -1.0458929268722420e+02 -9.2218004317948470e+01 0 0 0
1931 78 2 0.0000000000000000e+00 -1.3860530187165031e+01 -1.0578445458898582e+02 -9.1719667193489940e+01 0 0 0
4196 168 4 0.0000000000000000e+00 -1.3729015049980214e+02 -9.8800166805113250e+01 -8.8474329356578735e+01 0 0 0
592 24 2 0.0000000000000000e+00 -1.2261562962144102e+02 -9.9991828017772264e+01 -8.9199438108786794e+01 0 0 0
1982 80 1 0.0000000000000000e+00 -1.1538451203985612e+02 -9.6657041874492776e+01 -1.0001864976610864e+02 0 0 0
1981 80 2 0.0000000000000000e+00 -1.1177113441425453e+02 -1.0040998925394233e+02 -9.1244708322213029e+01 0 0 0
1658 67 2 0.0000000000000000e+00 -5.3326754525280322e+01 -9.6550816284391402e+01 -9.8335778053251303e+01 0 0 0
3077 124 4 0.0000000000000000e+00 -4.5855415037881507e+01 -8.8750761999113891e+01 -8.9215161894971061e+01 0 0 0
4382 176 3 0.0000000000000000e+00 -3.7995891433519908e+01 -8.7521800872615714e+01 -1.0055851303285519e+02 0 0 0
3076 124 3 0.0000000000000000e+00 -4.5570439770519407e+01 -9.8896775009771957e+01 -8.8971774235755248e+01 0 0 0
1930 78 2 0.0000000000000000e+00 -1.3628143162968758e+01 -9.6510269123319830e+01 -9.6005585449350008e+01 0 0 0
1929 78 2 0.0000000000000000e+00 -8.7474191460028550e+00 -8.7460143553540661e+01 -9.5662549272933859e+01 0 0 0
1992 80 2 0.0000000000000000e+00 -1.5970953013018445e+02 -8.2140197842565172e+01 -9.8121612405784560e+01 0 0 0
1993 80 2 0.0000000000000000e+00 -1.5574393011007334e+02 -8.2394279560964776e+01 -8.8128777229998875e+01 0 0 0
2175 87 1 0.0000000000000000e+00 -9.2841875017250743e+01 -7.6983619467535007e+01 -9.4335150105871534e+01 0 0 0
2174 87 2 0.0000000000000000e+00 -8.5294501606686950e+01 -7.6277799083061637e+01 -1.0075956139559412e+02 0 0 0
1659 67 2 0.0000000000000000e+00 -5.3495498982188003e+01 -8.6792473174672821e+01 -9.9387521037877647e+01 0 0 0
1660 67 2 0.0000000000000000e+00 -5.7602698626776423e+01 -7.7336681635582295e+01 -9.8232626790755248e+01 0 0 0
4383 176 4 0.0000000000000000e+00 -3.5460404379907082e+01 -8.5211427611644481e+01 -9.1249963520928631e+01 0 0 0
3078 124 4 0.0000000000000000e+00 -4.3314028717528878e+01 -7.9607771782064177e+01 -9.0299962453562372e+01 0 0 0
1162 47 2 0.0000000000000000e+00 -2.0555729846062036e+01 -7.4391375686127191e+01 -9.2980957521287408e+01 0 0 0
1161 47 2 0.0000000000000000e+00 -1.8485014458494835e+01 -8.4043555285888090e+01 -9.2473557917640548e+01 0 0 0
4000 160 3 0.0000000000000000e+00 -9.6105143703202955e+01 -6.6320282261510812e+01 -9.0948366939529251e+01 0 0 0
3999 160 4 0.0000000000000000e+00 -9.0624666272355753e+01 -6.6716530558211218e+01 -9.8908138990040243e+01 0 0 0
2725 109 3 0.0000000000000000e+00 -8.6496612131468950e+01 -6.2902576938189902e+01 -8.8480793632979100e+01 0 0 0