LAMMPS (5 Jun 2019)
Reading restart file ...
  restart file = 5 Jun 2019, LAMMPS = 5 Jun 2019
WARNING: Restart file used different # of processors (../read_restart.cpp:740)
  restoring atom style full from restart
  orthogonal box = (-250 -250 -250) to (250 250 250)
  1 by 2 by 5 MPI processor grid
  restoring pair style lj/cut from restart
  restoring bond style harmonic from restart
  restoring angle style cosine from restart
  5000 atoms
  5291 bonds
  4600 angles
Finding 1-2 1-3 1-4 neighbors ...
  special bond factors lj:   1          1          1         
  special bond factors coul: 0          0          0         
  3 = max # of 1-2 neighbors
  4 = max # of 1-3 neighbors
  8 = max # of 1-4 neighbors
  16 = max # of special neighbors
  special bonds CPU = 0.0114955 secs
  read_restart CPU = 0.17178 secs
1000 atoms in group rxnSites
Neighbor list info ...
  update every 1 steps, delay 1 steps, check yes
  max neighbors/atom: 2000, page size: 100000
  master list distance cutoff = 26.9
  ghost atom cutoff = 26.9
  binsize = 13.45, bins = 38 38 38
  2 neighbor lists, perpetual/occasional/extra = 1 1 0
  (1) pair lj/cut, perpetual
      attributes: half, newton on
      pair build: half/bin/newton
      stencil: half/bin/3d/newton
      bin: standard
  (2) fix bond/create/random, occasional, copy from (1)
      attributes: half, newton on
      pair build: copy
      stencil: none
      bin: none
Setting up Verlet run ...
  Unit style    : real
  Current step  : 300000000
  Time step     : 25
WARNING: Inconsistent image flags (../domain.cpp:784)
Per MPI rank memory allocation (min/avg/max) = 10.27 | 10.56 | 11.11 Mbytes
Step E_pair PotEng KinEng E_bond E_angle Temp Bonds 
300000000   -1381.8686     2859.495    4683.8198    1505.9058    2735.4577    314.32776     5291 
301000000   -1421.7511    2849.1304     4568.592    1571.3632    2699.5182    306.59491     5292 
302000000   -1417.1469    2853.6468    4621.6023    1592.9514    2677.8422    310.15239     5290 
303000000   -1384.1082    2898.8842    4674.5107    1556.6117    2726.3807    313.70304     5291 
304000000   -1375.8586    2783.1715    4572.4374    1500.8343    2658.1958    306.85297     5292 
305000000   -1383.4141    2851.9379    4720.7351    1579.4454    2655.9066    316.80512     5292 
306000000   -1399.9086    2854.7687    4592.3255    1560.1863     2694.491    308.18764     5292 
307000000   -1416.0767    2830.5728    4601.1904    1590.0106    2656.6389    308.78257     5293 
308000000   -1388.6393    2794.5892    4637.7525    1525.3064    2657.9221    311.23622     5293 
309000000   -1355.1199     2893.471    4614.9463    1553.1937    2695.3972    309.70571     5293 
310000000   -1366.4006    2884.8294    4609.0838    1605.3758    2645.8541    309.31228     5292 
311000000   -1418.4478    2747.1955    4654.1002    1501.0701    2664.5733     312.3333     5293 
312000000   -1426.9509    2826.8347    4557.0197    1530.3483    2723.4373     305.8183     5293 
313000000    -1397.674    2897.8241    4647.5348    1576.9772     2718.521     311.8927     5291 
314000000   -1387.7489    2834.9691    4578.8723     1532.456    2690.2619    307.28481     5292 
315000000   -1401.9634    2846.2963    4597.4924    1589.3653    2658.8945    308.53439     5292 
316000000   -1403.9684     2837.303    4627.5829    1547.7735     2693.498    310.55375     5294 
317000000   -1385.9394    2894.0764    4642.1709    1572.6571    2707.3587    311.53273     5294 
318000000   -1401.9764    2841.6651     4708.385    1551.6904    2691.9512    315.97632     5294 
319000000   -1459.3507    2800.1377    4683.7965    1521.5971    2737.8913     314.3262     5294 
320000000   -1393.1219    2897.3996    4595.4251    1554.4207    2736.1008    308.39566     5293 
321000000   -1423.3469    2836.7942    4489.3726    1587.8955    2672.2456    301.27855     5294 
322000000   -1403.1106    2818.0293    4637.3862    1540.1612    2680.9786    311.21164     5293 
323000000   -1416.3441    2820.1685    4712.7292    1526.8062    2709.7064    316.26785     5293 
324000000    -1346.766    2924.7188    4551.8675    1580.9773    2690.5074    305.47254     5293 
325000000   -1386.1193    2865.7292    4639.5367    1526.4553    2725.3931    311.35595     5292 
326000000   -1410.7001    2858.2172    4661.9291    1572.3632    2696.5542    312.85869     5293 
327000000   -1314.3192    2983.8546    4605.4607    1602.0111    2696.1627    309.06914     5293 
328000000   -1403.0126     2924.573    4710.7706    1582.2418    2745.3439    316.13641     5293 
329000000   -1376.3305    2966.2001    4640.0189    1584.2674    2758.2632    311.38832     5292 
330000000   -1366.0829    2835.4634    4611.3131    1546.8086    2654.7377    309.46189     5293 
331000000   -1373.3296    2818.3703    4651.1438    1561.8215    2629.8785     312.1349     5295 
332000000   -1401.3021    2779.9152    4619.1433    1557.8715    2623.3459    309.98737     5295 
333000000   -1393.1077    2916.5328    4523.5791    1635.0895     2674.551    303.57412     5295 
334000000   -1411.8105    2812.6165     4569.524    1538.1146    2686.3124    306.65746     5295 
335000000   -1396.8267    2902.1194    4496.3785      1553.08    2745.8661    301.74871     5293 
336000000   -1388.8131    2982.8806    4611.2783    1605.3499    2766.3437    309.45956     5294 
337000000   -1439.1241    2870.9482    4563.8027    1550.8769    2759.1955     306.2735     5293 
338000000   -1407.0728     2917.996    4595.1313    1620.5358     2704.533    308.37594     5291 
339000000   -1366.3695    2921.8447    4690.4403    1568.6721    2719.5421    314.77206     5293 
340000000   -1376.7842    2935.9292    4586.4752    1556.3778    2756.3355    307.79504     5291 
341000000   -1417.5525    2836.0838    4565.4963    1494.0721    2759.5642    306.38716     5293 
342000000   -1334.1632    2877.2516    4604.8602    1559.0747    2652.3401    309.02884     5292 
343000000    -1396.564    2763.3326    4692.6437    1515.0797    2644.8169    314.91992     5294 
344000000   -1396.6573    2838.2474    4702.6334    1570.6045    2664.3002    315.59033     5292 
345000000   -1426.7934    2922.4311    4560.4661    1609.1241    2740.1004    306.04958     5291 
346000000   -1397.3392    2886.0337    4648.1014    1569.3413    2714.0316    311.93072     5291 
347000000   -1443.3284    2871.2545    4715.2978    1559.1234    2755.4596    316.44023     5291 
348000000   -1424.3469    2879.0997    4664.0174    1568.2609    2735.1858    312.99884     5292 
349000000   -1360.1606    2844.3099    4642.0938    1541.8785    2662.5921    311.52756     5292 
350000000   -1375.1966    2878.6778    4572.6821    1560.1238    2693.7506    306.86939     5291 
351000000    -1367.424     2898.416    4587.8915    1601.1692    2664.6708    307.89008     5291 
352000000   -1362.6819    2924.4561    4731.3027    1599.9193    2687.2187    317.51431     5293 
353000000   -1369.9317    2835.9385    4569.9705    1522.7088    2683.1614    306.68741     5293 
354000000   -1381.9517    2876.0217    4657.3426     1567.132    2690.8415     312.5509     5293 
355000000   -1329.4399    2968.5619    4619.2615    1549.4805    2748.5213     309.9953     5293 
356000000    -1361.063    2969.0166    4616.7413    1631.1238    2698.9558    309.82617     5294 
357000000   -1416.3293    2828.8528    4619.9611    1551.8925    2693.2896    310.04225     5294 
358000000   -1356.6293    2806.6527    4659.6777    1542.7811    2620.5009     312.7076     5294 
359000000   -1326.5992    2910.5292    4567.6181    1540.0295     2697.099    306.52955     5294 
360000000   -1344.9413    2918.5118    4720.5508     1602.433    2661.0201    316.79275     5293 
361000000   -1356.4626    2875.7524    4662.4976    1539.4381    2692.7769    312.89684     5294 
362000000   -1348.9326    2923.3678     4590.213    1571.6963    2700.6041    308.04588     5293 
363000000   -1426.7994     2933.326     4588.677       1603.4    2756.7253     307.9428     5293 
364000000   -1360.2533    2872.2429    4620.8599    1579.8359    2652.6603    310.10257     5293 
365000000   -1366.3261     2914.277    4574.0194    1528.2142    2752.3889    306.95914     5294 
366000000   -1382.5856    2871.7217    4684.0336    1580.4511    2673.8563    314.34211     5294 
367000000   -1368.4187    2871.5829    4560.1205     1572.072    2667.9297    306.02639     5294 
368000000   -1357.7527    2906.0409    4671.3763    1547.6298    2716.1637    313.49269     5293 
369000000   -1361.1037    2893.2922    4530.2036    1572.4322    2681.9637    304.01869     5293 
370000000   -1355.1011    2881.5527    4624.9786     1559.076    2677.5779    310.37897     5292 
371000000   -1393.5145    2873.6607     4617.435    1561.3874    2705.7878    309.87272     5291 
372000000   -1364.7612     2781.692    4742.1811    1516.0664    2630.3868    318.24434     5292 
373000000   -1343.9425    2875.8517     4647.753    1536.7912    2683.0029    311.90734     5291 
374000000   -1351.1979    2894.7805    4517.0912    1524.9921    2720.9863    303.13873     5293 
375000000   -1359.2926     2918.548    4712.8717    1572.4954    2705.3452    316.27741     5292 
376000000   -1353.3674    2857.7527    4513.6204    1480.1831     2730.937     302.9058     5293 
377000000   -1379.7475    2876.1146    4592.4923    1564.0575    2691.8045    308.19884     5294 
378000000   -1395.6055    2889.8202     4638.798    1607.9508    2677.4749    311.30638     5294 
379000000   -1352.1349    2917.1301    4531.5215    1539.6572    2729.6078    304.10713     5293 
380000000   -1360.3024    2921.3755    4557.7103    1595.6302    2686.0476    305.86465     5294 
381000000   -1394.8855    2848.2042     4594.253     1538.138    2704.9516      308.317     5293 
382000000   -1385.5878    2859.9547    4663.2214    1517.6508    2727.8917    312.94542     5293 
383000000   -1376.1869    2896.2262    4631.1491    1548.5168    2723.8963    310.79307     5294 
384000000   -1380.0659    2965.8326    4552.3582    1552.4791    2793.4193    305.50547     5294 
385000000   -1321.8274    2927.1099    4534.7124    1538.9241    2710.0132    304.32127     5293 
386000000   -1329.6891    2952.7916    4623.4869    1579.4818    2702.9988    310.27887     5291 
387000000   -1327.5766    2987.7606    4595.6312    1613.0262     2702.311    308.40949     5291 
388000000   -1349.5724     2905.903    4742.0235    1583.8486    2671.6269    318.23377     5292 
389000000   -1368.9668    2977.0484    4647.9608    1550.4144    2795.6009    311.92129     5294 
390000000    -1352.383     2974.769    4514.1621     1577.262    2749.8901    302.94216     5293 
391000000   -1361.6922    2947.4861    4550.8749    1568.2595    2740.9188    305.40592     5293 
392000000   -1341.9457    2934.0842    4678.6691    1606.9884    2669.0415     313.9821     5293 
393000000   -1393.4871    2908.9463    4581.7362    1546.7549    2755.6785      307.477     5293 
394000000   -1375.6171    2894.3666    4692.7307    1579.6352    2690.3485    314.92577     5293 
395000000   -1351.2938     2896.993    4603.3526    1546.3579    2701.9289    308.92767     5294 
396000000   -1396.9908    2818.7618    4654.3463    1538.3877    2677.3649    312.34982     5294 
397000000    -1368.034    2874.1765    4584.5532    1564.2623    2677.9482    307.66605     5293 
398000000   -1340.1401    2940.1114    4672.9978    1582.6819    2697.5695     313.6015     5292 
399000000    -1348.459    2888.4033    4686.6617    1568.4763     2668.386    314.51848     5294 
400000000   -1424.3171    2854.7317    4606.9305    1501.4735    2777.5754    309.16778     5294 
Loop time of 22919.8 on 10 procs for 100000000 steps with 5000 atoms

Performance: 9424.159 ns/day, 0.003 hours/ns, 4363.037 timesteps/s
99.7% CPU use with 10 MPI tasks x no OpenMP threads

MPI task timing breakdown:
Section |  min time  |  avg time  |  max time  |%varavg| %total
---------------------------------------------------------------
Pair    | 6533.6     | 7337.9     | 8209.5     | 617.2 | 32.02
Bond    | 1576       | 1592.4     | 1636       |  44.4 |  6.95
Neigh   | 2992.4     | 3016.8     | 3043.3     |  28.2 | 13.16
Comm    | 5519.1     | 6335.3     | 7485.2     | 782.7 | 27.64
Output  | 0.54243    | 0.54259    | 0.54275    |   0.0 |  0.00
Modify  | 3598.9     | 3626.4     | 3667.7     |  39.1 | 15.82
Other   |            | 1011       |            |       |  4.41

Nlocal:    500 ave 532 max 480 min
Histogram: 1 2 3 0 1 1 0 0 1 1
Nghost:    628.5 ave 896 max 528 min
Histogram: 3 4 0 1 0 0 1 0 0 1
Neighs:    7138.6 ave 8646 max 6256 min
Histogram: 1 2 2 2 0 1 1 0 0 1

Total # of neighbors = 71386
Ave neighs/atom = 14.2772
Ave special neighs/atom = 7.4924
Neighbor list builds = 5039335
Dangerous builds = 0
System init for write_restart ...
Total wall time: 6:22:00
