LAMMPS (5 Jun 2019)
Reading restart file ...
  restart file = 5 Jun 2019, LAMMPS = 5 Jun 2019
WARNING: Restart file used different # of processors (../read_restart.cpp:740)
  restoring atom style full from restart
  orthogonal box = (-250 -250 -250) to (250 250 250)
  1 by 2 by 5 MPI processor grid
  restoring pair style lj/cut from restart
  restoring bond style harmonic from restart
  restoring angle style cosine from restart
  5000 atoms
  5291 bonds
  4600 angles
Finding 1-2 1-3 1-4 neighbors ...
  special bond factors lj:   1          1          1         
  special bond factors coul: 0          0          0         
  3 = max # of 1-2 neighbors
  4 = max # of 1-3 neighbors
  8 = max # of 1-4 neighbors
  16 = max # of special neighbors
  special bonds CPU = 0.0124839 secs
  read_restart CPU = 0.195264 secs
1000 atoms in group rxnSites
Neighbor list info ...
  update every 1 steps, delay 1 steps, check yes
  max neighbors/atom: 2000, page size: 100000
  master list distance cutoff = 26.9
  ghost atom cutoff = 26.9
  binsize = 13.45, bins = 38 38 38
  2 neighbor lists, perpetual/occasional/extra = 1 1 0
  (1) pair lj/cut, perpetual
      attributes: half, newton on
      pair build: half/bin/newton
      stencil: half/bin/3d/newton
      bin: standard
  (2) fix bond/create/random, occasional, copy from (1)
      attributes: half, newton on
      pair build: copy
      stencil: none
      bin: none
Setting up Verlet run ...
  Unit style    : real
  Current step  : 300000000
  Time step     : 25
WARNING: Inconsistent image flags (../domain.cpp:784)
Per MPI rank memory allocation (min/avg/max) = 10.27 | 10.56 | 11.11 Mbytes
Step E_pair PotEng KinEng E_bond E_angle Temp Bonds 
300000000   -1381.8686     2859.495    4683.8198    1505.9058    2735.4577    314.32776     5291 
301000000   -1418.6089    2905.7163    4705.0351    1604.2898    2720.0354    315.75151     5291 
302000000   -1412.1359    2815.7891     4639.658    1542.3259     2685.599     311.3641     5290 
303000000   -1392.6324    2846.8838    4651.5411    1561.2025    2678.3136    312.16156     5290 
304000000   -1382.5138    2840.3578    4524.8825    1573.1648    2649.7068     303.6616     5290 
305000000   -1378.9912    2835.5578    4649.4541    1554.3101     2660.239    312.02151     5290 
306000000   -1385.9187    2876.8824    4593.5413     1563.435    2699.3661    308.26923     5291 
307000000   -1370.1388    2893.3905     4605.685     1545.609    2717.9204    309.08419     5291 
308000000   -1356.5829    2933.0297    4528.7805    1595.9629    2693.6497    303.92319     5292 
309000000   -1369.0398    2962.0875    4707.3683    1607.1482    2723.9792    315.90808     5292 
310000000   -1416.0482    2753.7589    4626.3504    1505.3577    2664.4493    310.47103     5292 
311000000   -1393.5785    2808.4878    4722.8612    1526.1092    2675.9571     316.9478     5290 
312000000   -1365.2462    2925.7464    4652.8411     1565.693    2725.2996    312.24881     5289 
313000000   -1385.6832    2824.9348     4521.131    1533.9554    2676.6627    303.40983     5287 
314000000   -1372.1145    2862.8083    4619.3922    1530.6027    2704.3201    310.00407     5287 
315000000   -1385.6693    2823.0686    4545.5886    1526.8309     2681.907    305.05116     5288 
316000000   -1397.2976    2785.3037    4555.5496    1519.4396    2663.1617    305.71964     5287 
317000000   -1400.8261     2903.295    4501.6108    1545.1701     2758.951    302.09985     5291 
318000000   -1365.5208    2948.2797    4633.6561    1580.1657    2733.6348    310.96131     5291 
319000000   -1408.6551    2881.2501    4594.1115    1563.0486    2726.8566     308.3075     5290 
320000000   -1372.1893    2845.4032    4637.3394    1499.9343    2717.6581    311.20849     5289 
321000000   -1384.7749    2807.8605    4597.7313    1518.0575    2674.5778    308.55043     5291 
322000000   -1410.3786    2902.5518    4606.7282     1578.195    2734.7354     309.1542     5292 
323000000   -1378.5965     2880.977    4529.0904    1567.6646    2691.9089    303.94399     5291 
324000000   -1399.4938    2875.5858    4598.3515    1598.1076    2676.9721    308.59205     5290 
325000000   -1375.7491    2830.8917    4561.2923     1528.672    2677.9688    306.10503     5290 
326000000   -1441.2191    2809.8562    4645.4991    1564.1855    2686.8898    311.75608     5290 
327000000   -1410.2927    2745.0547    4621.6444    1532.0269    2623.3206    310.15521     5289 
328000000   -1380.6437    2917.1418    4541.7729    1549.7678    2748.0177     304.7951     5287 
329000000   -1317.1224    2870.5996    4607.2688    1524.0116    2663.7104    309.19048     5288 
330000000   -1380.1075    2934.3848    4672.8227    1595.1768    2719.3155    313.58975     5289 
331000000    -1393.501    2797.6817    4583.5524     1524.436    2666.7467    307.59889     5288 
332000000   -1355.2573    2860.0925    4681.8371    1569.2664    2646.0834    314.19471     5287 
333000000   -1380.3132    2823.4296    4574.9014    1541.4895    2662.2533    307.01833     5288 
334000000   -1350.1294    2951.7995    4564.3232    1618.3098    2683.6192    306.30843     5289 
335000000   -1410.5413    2870.1866    4689.0708    1551.5526    2729.1753    314.68015     5289 
336000000    -1312.859    2932.5656     4649.607    1574.0441    2671.3805    312.03176     5290 
337000000   -1364.4005    2851.1506    4610.6624    1519.8097    2695.7413    309.41822     5290 
338000000   -1388.9995    2841.3813    4560.5884    1541.9168     2688.464    306.05779     5289 
339000000    -1352.999    2816.9658    4677.6571    1531.3458     2638.619    313.91418     5289 
340000000   -1350.2055    2853.4672     4588.255    1543.7505    2659.9221    307.91448     5288 
341000000   -1367.5284    2843.1922    4573.1267    1515.0713    2695.6492    306.89922     5288 
342000000   -1380.2431    2905.3376     4659.811    1536.3508    2749.2298    312.71655     5288 
343000000    -1366.526    2912.4878    4531.7261    1586.3073    2692.7065    304.12086     5289 
344000000   -1348.5045    2986.7603    4770.2687    1580.9356    2754.3292    320.12928     5289 
345000000   -1356.6275    2868.4061    4597.5207    1537.3457    2687.6879    308.53629     5290 
346000000   -1350.2253    2886.1281    4657.6877         1580    2656.3534    312.57406     5290 
347000000   -1403.3067     2875.501    4651.6405     1572.864    2705.9437    312.16823     5288 
348000000   -1369.5983    2819.6182     4609.635    1542.7622    2646.4542    309.34928     5289 
349000000   -1365.0193    2897.7434    4661.8054    1523.1766    2739.5861    312.85039     5290 
350000000    -1384.601      2851.66    4627.9349    1550.2121     2686.049    310.57737     5291 
351000000     -1394.02    2863.3993    4564.2467    1569.4865    2687.9328    306.30329     5290 
352000000   -1356.1631    3005.1126    4727.6188    1595.4545    2765.8212    317.26708     5292 
353000000   -1356.6718    2832.7416    4623.3842    1509.9355     2679.478    310.27198     5292 
354000000   -1361.7233    2884.9034    4649.7502    1552.3347    2694.2921    312.04137     5292 
355000000   -1386.3113    2867.3262    4603.8652    1561.5889    2692.0486    308.96207     5292 
356000000   -1347.6428    2985.8769    4632.4305    1584.0429    2749.4767    310.87906     5292 
357000000   -1386.8336     2940.377    4624.5506      1587.21    2740.0006    310.35025     5292 
358000000   -1359.6292    2914.1903    4640.3691    1550.5027    2723.3168    311.41182     5290 
359000000   -1355.5903    3000.3046    4571.8138    1603.0198    2752.8751    306.81112     5289 
360000000   -1363.4712    2879.2013    4655.4993    1568.4486    2674.2239    312.42719     5289 
361000000   -1366.8118    2825.9372     4629.522     1506.326    2686.4231    310.68387     5289 
362000000   -1311.1435    2940.3649    4715.8364     1555.594    2695.9144    316.47637     5290 
363000000   -1336.5569    2933.7273    4570.3725    1543.3136    2726.9706    306.71439     5290 
364000000   -1321.1691    2941.9317    4577.5253    1572.9921    2690.1086    307.19441     5288 
365000000   -1334.7173     2975.639    4649.4661    1566.7036    2743.6527    312.02231     5289 
366000000    -1327.257    2985.3162    4645.7043    1633.8401    2678.7331    311.76986     5289 
367000000   -1363.1858    2797.0682     4652.999    1526.0921    2634.1619     312.2594     5290 
368000000   -1370.8186    2951.8782    4612.8402    1570.3309    2752.3659    309.56437     5289 
369000000   -1334.5308    2891.7854    4628.2289    1548.7647    2677.5515    310.59709     5289 
370000000   -1361.4373    2901.6335    4562.9849    1549.5203    2713.5505    306.21862     5289 
371000000    -1374.069     2839.178    4657.4546    1510.8652    2702.3818    312.55841     5290 
372000000   -1400.5209    2893.7582    4618.4216    1585.1076    2709.1714    309.93894     5288 
373000000   -1334.8915    2934.5547    4549.0786    1589.1016    2680.3446    305.28537     5289 
374000000   -1376.0996    2968.8751    4677.0438    1596.2028    2748.7719    313.87303     5290 
375000000   -1346.5827    2911.6239    4721.6241    1547.7778    2710.4288    316.86478     5290 
376000000   -1345.8412    2985.3763    4637.1725    1578.8817    2752.3358     311.1973     5290 
377000000   -1387.6651    2883.3283     4707.233    1557.5842    2713.4092    315.89901     5289 
378000000   -1333.3111    2953.1773    4631.6582    1558.1427    2728.3457    310.82723     5290 
379000000   -1368.5553    2870.8767    4605.6218    1558.0089     2681.423    309.07995     5290 
380000000   -1333.2092    2993.8669    4581.2362    1569.0568    2758.0193    307.44345     5290 
381000000   -1365.8443    2917.1686    4605.5281     1559.708     2723.305    309.07366     5290 
382000000   -1313.0853    2946.4644    4513.1582    1575.4654    2684.0843    302.87478     5291 
383000000   -1337.7228     2973.294    4601.2421    1546.5817    2764.4351    308.78603     5291 
384000000   -1365.2367    2908.5531    4690.7356    1532.6013    2741.1885    314.79188     5291 
385000000   -1402.7711    2874.2158    4579.8637    1592.1122    2684.8748    307.35134     5291 
386000000   -1340.4768    2952.7405    4685.1357    1505.3942    2787.8231    314.41607     5291 
387000000   -1354.2872    2959.0658    4651.3676    1584.3565    2728.9965    312.14992     5291 
388000000   -1394.1168    2874.9242    4604.8962     1533.475     2735.566    309.03125     5290 
389000000   -1386.0947    2864.5636    4637.9464    1554.5368    2696.1216    311.24923     5289 
390000000   -1411.1319    2808.3907    4670.2025    1523.6158    2695.9069    313.41392     5290 
391000000   -1433.5487    2942.3631     4577.296    1570.0632    2805.8486    307.17902     5290 
392000000   -1424.9814    2949.5449    4657.9065    1616.4351    2758.0912    312.58874     5289 
393000000   -1379.3148    2891.2888    4659.2625    1561.2178    2709.3859    312.67974     5290 
394000000   -1331.7504    2923.7726    4687.9925    1573.1019    2682.4211    314.60779     5291 
395000000   -1389.4621    2945.3291    4597.7706    1556.9806    2777.8106    308.55306     5291 
396000000   -1367.8325    2829.4302    4532.7562    1535.7559    2661.5068    304.18999     5291 
397000000    -1345.702    2936.8363    4626.7301    1564.7783    2717.7599    310.49651     5291 
398000000    -1365.354    2889.0963    4638.3191    1532.9413     2721.509    311.27424     5291 
399000000   -1368.0888    2812.3439    4682.0016    1528.7842    2651.6486    314.20575     5289 
400000000   -1322.3024    2910.9676    4672.2381    1542.2429    2691.0272    313.55052     5291 
Loop time of 22688.7 on 10 procs for 100000000 steps with 5000 atoms

Performance: 9520.176 ns/day, 0.003 hours/ns, 4407.489 timesteps/s
99.7% CPU use with 10 MPI tasks x no OpenMP threads

MPI task timing breakdown:
Section |  min time  |  avg time  |  max time  |%varavg| %total
---------------------------------------------------------------
Pair    | 6698       | 7311.5     | 8192.6     | 599.4 | 32.23
Bond    | 1574.6     | 1594.4     | 1627.1     |  46.5 |  7.03
Neigh   | 3005.7     | 3032.8     | 3065.1     |  30.1 | 13.37
Comm    | 5122.4     | 6098.2     | 7087.1     | 786.5 | 26.88
Output  | 0.57158    | 0.57173    | 0.57183    |   0.0 |  0.00
Modify  | 3586.8     | 3622.4     | 3672.1     |  40.7 | 15.97
Other   |            | 1029       |            |       |  4.53

Nlocal:    500 ave 520 max 478 min
Histogram: 2 1 0 1 0 1 2 0 1 2
Nghost:    607.5 ave 801 max 542 min
Histogram: 5 3 0 0 0 0 0 0 0 2
Neighs:    6725.9 ave 7672 max 5821 min
Histogram: 1 1 0 2 1 1 1 2 0 1

Total # of neighbors = 67259
Ave neighs/atom = 13.4518
Ave special neighs/atom = 7.4808
Neighbor list builds = 5039549
Dangerous builds = 0
System init for write_restart ...
Total wall time: 6:18:09
