LAMMPS (5 Jun 2019)
Reading restart file ...
  restart file = 5 Jun 2019, LAMMPS = 5 Jun 2019
WARNING: Restart file used different # of processors (../read_restart.cpp:740)
  restoring atom style full from restart
  orthogonal box = (-250 -250 -250) to (250 250 250)
  1 by 2 by 5 MPI processor grid
  restoring pair style lj/cut from restart
  restoring bond style harmonic from restart
  restoring angle style cosine from restart
  5000 atoms
  5291 bonds
  4600 angles
Finding 1-2 1-3 1-4 neighbors ...
  special bond factors lj:   1          1          1         
  special bond factors coul: 0          0          0         
  3 = max # of 1-2 neighbors
  4 = max # of 1-3 neighbors
  8 = max # of 1-4 neighbors
  16 = max # of special neighbors
  special bonds CPU = 0.0139331 secs
  read_restart CPU = 0.193908 secs
1000 atoms in group rxnSites
Neighbor list info ...
  update every 1 steps, delay 1 steps, check yes
  max neighbors/atom: 2000, page size: 100000
  master list distance cutoff = 26.9
  ghost atom cutoff = 26.9
  binsize = 13.45, bins = 38 38 38
  2 neighbor lists, perpetual/occasional/extra = 1 1 0
  (1) pair lj/cut, perpetual
      attributes: half, newton on
      pair build: half/bin/newton
      stencil: half/bin/3d/newton
      bin: standard
  (2) fix bond/create/random, occasional, copy from (1)
      attributes: half, newton on
      pair build: copy
      stencil: none
      bin: none
Setting up Verlet run ...
  Unit style    : real
  Current step  : 300000000
  Time step     : 25
WARNING: Inconsistent image flags (../domain.cpp:784)
Per MPI rank memory allocation (min/avg/max) = 10.27 | 10.56 | 11.11 Mbytes
Step E_pair PotEng KinEng E_bond E_angle Temp Bonds 
300000000   -1381.8686     2859.495    4683.8198    1505.9058    2735.4577    314.32776     5291 
301000000   -1434.8592    2903.8568    4475.2931    1592.2498    2746.4662    300.33368     5291 
302000000   -1410.7422     2936.357    4645.1187    1570.7553    2776.3439    311.73056     5291 
303000000   -1409.4581     2868.857    4645.4714    1554.5981     2723.717    311.75423     5290 
304000000   -1421.9379    2700.6123    4602.5153    1520.1334    2602.4168    308.87148     5290 
305000000    -1366.799    2859.0968    4615.3998    1560.9826    2664.9132    309.73615     5290 
306000000   -1390.6988    2869.1526     4556.471     1567.483    2692.3684    305.78148     5290 
307000000    -1363.802    2842.8906    4695.4603    1545.2663    2661.4263    315.10895     5291 
308000000   -1397.1804    2880.1841    4606.8029    1618.9293    2658.4353    309.15921     5290 
309000000   -1347.2448    2936.3772    4617.0591    1576.8346    2706.7874     309.8475     5291 
310000000    -1426.987    2869.8562     4669.817    1602.2053    2694.6379    313.38804     5291 
311000000    -1431.087    2867.6173    4681.0617     1616.196    2682.5083    314.14266     5291 
312000000   -1423.0803    2804.1932    4657.2473    1558.6623    2668.6112     312.5445     5292 
313000000   -1433.4249    2752.1308    4630.3495    1523.7798    2661.7759    310.73941     5291 
314000000   -1375.6477    2803.1865    4560.9769    1580.3815    2598.4527    306.08386     5290 
315000000   -1385.7353    2846.7467    4695.1039    1564.6136    2667.8684    315.08503     5290 
316000000   -1424.2106    2897.0292    4606.3711    1602.8943    2718.3456    309.13024     5289 
317000000   -1387.0681    2925.9813    4542.6132    1612.9775     2700.072    304.85149     5287 
318000000   -1373.8892    2847.0393    4665.6962    1518.2153    2702.7132     313.1115     5289 
319000000   -1407.2542    2818.7217    4625.2667    1568.1893    2657.7865    310.39831     5289 
320000000   -1345.1312     2764.821    4605.4352    1504.1158    2605.8364    309.06743     5289 
321000000   -1392.2735    2872.7111    4573.1455     1566.099    2698.8856    306.90049     5291 
322000000   -1398.2134    2912.7127    4647.4439    1528.9335    2781.9926     311.8866     5292 
323000000   -1354.6562    2903.9482    4749.9253    1569.9009    2688.7034    318.76406     5292 
324000000   -1392.4755    2880.4655    4565.9444    1540.3829    2732.5581    306.41723     5292 
325000000   -1431.3632    2773.3269    4599.2143     1504.363    2700.3271    308.64995     5292 
326000000   -1390.5186    2863.5313     4548.431    1568.3199      2685.73    305.24192     5292 
327000000   -1388.8689    2811.4635    4652.7531    1607.3134    2593.0191     312.2429     5291 
328000000   -1332.3623    2893.5003    4633.0291    1592.5406     2633.322    310.91923     5293 
329000000   -1377.4685    2932.0482    4638.4063    1606.3782    2703.1385     311.2801     5292 
330000000    -1349.872    2931.5598     4552.238    1579.5288    2701.9031     305.4974     5293 
331000000   -1378.9875    2846.0756    4588.0917    1546.5868    2678.4763    307.90352     5292 
332000000   -1395.0931    2861.4047    4671.5843    1531.4583    2725.0395    313.50665     5294 
333000000   -1398.7241    2883.9703    4589.1273    1560.7083    2721.9861    307.97301     5293 
334000000   -1393.1128    2858.1519    4675.0804    1569.6245    2681.6402    313.74127     5293 
335000000   -1413.9358    2758.4297    4656.9197    1496.5503    2675.8152    312.52252     5293 
336000000   -1436.0555    2836.5603    4652.0638    1566.9907    2705.6251    312.19664     5290 
337000000   -1411.0057    2897.4571    4659.3074    1575.6969    2732.7659    312.68275     5292 
338000000   -1366.5076    2858.2515    4589.0263    1580.4511     2644.308    307.96624     5292 
339000000   -1429.6305    2812.6382    4639.9863    1534.1675    2708.1012    311.38613     5293 
340000000   -1378.2589    2895.7874    4567.4578    1575.9312    2698.1152    306.51879     5293 
341000000   -1365.0312     2940.145      4612.41    1594.5394    2710.6368     309.5355     5293 
342000000   -1345.0767    2874.6347    4696.6247    1573.3984     2646.313    315.18709     5294 
343000000   -1387.9412    2842.3018     4643.632    1567.5554    2662.6876    311.63079     5294 
344000000     -1391.71    2832.3134    4661.0901    1563.0701    2660.9533    312.80239     5293 
345000000   -1374.9708    2913.1659    4654.4134    1522.8308    2765.3059    312.35432     5292 
346000000   -1432.0774    2802.8073    4634.3342    1497.6397    2737.2449    311.00682     5293 
347000000   -1381.8129    2864.2046    4573.5293    1607.7155     2638.302    306.92625     5292 
348000000   -1386.7173    2797.3858    4647.6452    1545.6022    2638.5009    311.90011     5292 
349000000     -1390.13    2894.9828    4636.6025    1553.4725    2731.6404    311.15904     5292 
350000000   -1397.2933    2853.1652    4674.7566     1552.426    2698.0325    313.71954     5292 
351000000   -1364.8535    2911.8161     4687.809    1609.4597    2667.2099    314.59547     5290 
352000000   -1414.3694    2808.9638    4722.5944    1568.3598    2654.9734    316.92989     5292 
353000000   -1403.5956    2921.8348    4580.0585    1577.9392    2747.4912    307.36442     5293 
354000000   -1378.7315    2870.6496    4618.5501    1559.5042     2689.877    309.94756     5292 
355000000   -1387.5109    2850.0877     4640.227    1508.3146     2729.284    311.40228     5293 
356000000   -1349.9524    2905.4427     4657.158    1564.7898    2690.6054    312.53851     5291 
357000000   -1385.4832    2903.4939    4649.9874    1593.3899    2695.5872     312.0573     5291 
358000000   -1371.5483    2852.6962    4643.3783    1565.2989    2658.9456    311.61376     5291 
359000000   -1427.4504      2866.16    4599.0212    1581.3965    2712.2139    308.63699     5291 
360000000   -1404.7213    2907.1968    4625.4995    1583.2713    2728.6468    310.41393     5290 
361000000   -1362.4775    2822.0995    4662.5335    1546.0394    2638.5376    312.89925     5290 
362000000   -1377.6533    2887.2215    4589.2007    1543.8432    2721.0316    307.97794     5290 
363000000   -1398.0685    2970.2925    4647.0479    1611.8309    2756.5301    311.86002     5290 
364000000    -1432.159    2862.7252    4640.1746    1533.7754    2761.1087    311.39876     5291 
365000000   -1384.0083    2923.4543    4528.8209    1557.9992    2749.4633     303.9259     5293 
366000000   -1384.1756    2929.4019     4617.755    1546.2653    2767.3121     309.8942     5292 
367000000   -1371.8848    2873.0152    4720.5853    1534.9408    2709.9592    316.79507     5293 
368000000   -1340.8501    2884.3601    4651.2683    1564.8781    2660.3322    312.14325     5293 
369000000   -1353.8902    2902.6922    4666.8257    1553.7814     2702.801     313.1873     5293 
370000000    -1344.919    2934.4668    4621.3172    1558.9557    2720.4301    310.13326     5293 
371000000   -1365.3853    2871.8562     4655.113    1535.3085    2701.9329    312.40127     5294 
372000000   -1367.2456    2866.7321    4629.9572    1563.7093    2670.2684    310.71308     5295 
373000000   -1422.0899    2893.2869    4598.7422    1573.9615    2741.4153    308.61827     5295 
374000000   -1409.5549    2820.2583    4617.3883    1518.0383    2711.7749    309.86959     5295 
375000000   -1377.4362    2898.1588    4661.4976    1578.5969     2696.998    312.82974     5295 
376000000   -1326.3833    2962.9205    4697.8919    1551.3902    2737.9136    315.27213     5295 
377000000   -1314.8624    3006.8603    4619.6582    1599.2889    2722.4338    310.02192     5293 
378000000   -1359.2881    2930.4812    4657.3928     1587.802    2701.9673    312.55427     5294 
379000000   -1345.6861    2790.9976    4615.9599    1496.7859    2639.8977    309.77373     5293 
380000000   -1386.6423    2879.7152    4605.1551    1546.9396    2719.4179    309.04863     5294 
381000000   -1387.9224    2959.5944    4577.4689    1604.4829    2743.0339    307.19063     5294 
382000000    -1388.384    2929.9602    4605.8427    1608.8842      2709.46    309.09477     5294 
383000000   -1349.4007    2892.6368    4619.4565     1550.266    2691.7715    310.00838     5294 
384000000   -1324.9167     2986.771    4561.7947    1550.4045    2761.2832    306.13875     5294 
385000000   -1339.1502    2833.1154    4669.9136    1533.0422    2639.2234    313.39453     5292 
386000000   -1355.4543    2873.6098    4672.8564    1539.6842    2689.3799    313.59201     5292 
387000000   -1368.4669    2894.5039    4631.9438    1533.3769    2729.5939     310.8464     5291 
388000000   -1340.3569    2835.7845    4612.2796    1530.7251    2645.4163    309.52675     5291 
389000000   -1343.5703    2891.7243    4578.8491    1528.0794    2707.2152    307.28326     5292 
390000000   -1403.4768    2903.4967    4582.4978    1581.0347    2725.9388    307.52812     5293 
391000000   -1373.0154    2924.5103    4665.5422    1571.5389    2725.9869    313.10117     5294 
392000000   -1329.1576    2922.3472    4564.5171    1532.9728     2718.532    306.32144     5292 
393000000   -1365.3084    2883.6152    4692.1447    1608.8217     2640.102    314.88644     5292 
394000000   -1343.3102    2905.3295    4719.1162    1554.9556     2693.684    316.69648     5292 
395000000   -1372.1934    2867.8597    4694.8487    1537.9507    2702.1024     315.0679     5292 
396000000   -1405.9086    2887.4336     4561.594    1550.9834    2742.3588    306.12528     5292 
397000000   -1340.2466    2987.9819    4520.8787    1584.3419    2743.8866     303.3929     5292 
398000000   -1338.2398    3007.4753    4624.4356    1565.8998    2779.8153    310.34253     5290 
399000000   -1356.6122    2932.0941    4575.6807    1585.4394    2703.2669    307.07062     5290 
400000000   -1390.8465    2944.9634    4645.0466    1569.1271    2766.6829    311.72572     5291 
Loop time of 22114.7 on 10 procs for 100000000 steps with 5000 atoms

Performance: 9767.237 ns/day, 0.002 hours/ns, 4521.869 timesteps/s
99.7% CPU use with 10 MPI tasks x no OpenMP threads

MPI task timing breakdown:
Section |  min time  |  avg time  |  max time  |%varavg| %total
---------------------------------------------------------------
Pair    | 6541.9     | 7339.6     | 8165.5     | 624.2 | 33.19
Bond    | 1577       | 1599.8     | 1667.2     |  65.2 |  7.23
Neigh   | 3006.8     | 3021.9     | 3042.1     |  22.4 | 13.66
Comm    | 4905.9     | 5792.3     | 6891.2     | 832.8 | 26.19
Output  | 0.57294    | 0.57307    | 0.57318    |   0.0 |  0.00
Modify  | 3483.8     | 3515.8     | 3556.5     |  36.4 | 15.90
Other   |            | 844.8      |            |       |  3.82

Nlocal:    500 ave 540 max 477 min
Histogram: 3 1 0 1 2 2 0 0 0 1
Nghost:    624.3 ave 786 max 519 min
Histogram: 1 2 2 2 0 1 0 0 1 1
Neighs:    7054.8 ave 8358 max 5982 min
Histogram: 3 0 1 1 1 0 1 0 1 2

Total # of neighbors = 70548
Ave neighs/atom = 14.1096
Ave special neighs/atom = 7.4824
Neighbor list builds = 5038885
Dangerous builds = 0
System init for write_restart ...
Total wall time: 6:08:35
