LAMMPS (5 Jun 2019)
Reading restart file ...
  restart file = 5 Jun 2019, LAMMPS = 5 Jun 2019
WARNING: Restart file used different # of processors (../read_restart.cpp:740)
  restoring atom style full from restart
  orthogonal box = (-250 -250 -250) to (250 250 250)
  1 by 2 by 5 MPI processor grid
  restoring pair style lj/cut from restart
  restoring bond style harmonic from restart
  restoring angle style cosine from restart
  5000 atoms
  5291 bonds
  4600 angles
Finding 1-2 1-3 1-4 neighbors ...
  special bond factors lj:   1          1          1         
  special bond factors coul: 0          0          0         
  3 = max # of 1-2 neighbors
  4 = max # of 1-3 neighbors
  8 = max # of 1-4 neighbors
  16 = max # of special neighbors
  special bonds CPU = 0.0143569 secs
  read_restart CPU = 0.182352 secs
1000 atoms in group rxnSites
Neighbor list info ...
  update every 1 steps, delay 1 steps, check yes
  max neighbors/atom: 2000, page size: 100000
  master list distance cutoff = 26.9
  ghost atom cutoff = 26.9
  binsize = 13.45, bins = 38 38 38
  2 neighbor lists, perpetual/occasional/extra = 1 1 0
  (1) pair lj/cut, perpetual
      attributes: half, newton on
      pair build: half/bin/newton
      stencil: half/bin/3d/newton
      bin: standard
  (2) fix bond/create/random, occasional, copy from (1)
      attributes: half, newton on
      pair build: copy
      stencil: none
      bin: none
Setting up Verlet run ...
  Unit style    : real
  Current step  : 300000000
  Time step     : 25
WARNING: Inconsistent image flags (../domain.cpp:784)
Per MPI rank memory allocation (min/avg/max) = 10.27 | 10.56 | 11.11 Mbytes
Step E_pair PotEng KinEng E_bond E_angle Temp Bonds 
300000000   -1381.8686     2859.495    4683.8198    1505.9058    2735.4577    314.32776     5291 
301000000    -1394.588    2836.2011    4580.9483    1552.2531     2678.536    307.42413     5291 
302000000     -1359.62    2781.8635    4631.7025    1507.4731    2634.0104    310.83021     5290 
303000000   -1400.8929    2830.1163    4594.2143    1543.7689    2687.2402     308.3144     5292 
304000000   -1381.1729    2972.4556     4553.864    1643.1033    2710.5252    305.60652     5292 
305000000   -1369.4336    2904.5053    4664.6515    1574.6651    2699.2738    313.04139     5290 
306000000   -1390.2098     2876.065    4692.7015    1601.5967     2664.678    314.92381     5293 
307000000   -1355.4916    2907.9253     4523.294    1539.1284    2724.2885    303.55499     5293 
308000000   -1387.3683    2867.0079    4671.3163    1580.4139    2673.9623    313.48866     5292 
309000000   -1371.0724    2847.9825    4633.5691    1507.4502    2711.6047    310.95547     5293 
310000000   -1399.5705    2795.2628    4621.1236    1517.5736    2677.2596    310.12026     5293 
311000000   -1338.6228    2842.6765    4735.9452    1527.7348    2653.5646    317.82586     5293 
312000000    -1357.622    2833.4877    4572.3517    1575.6268    2615.4829    306.84722     5292 
313000000   -1409.1983    2877.1845    4704.3771    1597.2018     2689.181    315.70735     5292 
314000000   -1405.8125    2824.8157    4664.4326    1540.4365    2690.1916     313.0267     5291 
315000000   -1379.4743    2896.1037    4625.0848     1563.939     2711.639     310.3861     5292 
316000000   -1377.1264    2862.3925    4652.6153    1541.4608    2698.0581    312.23365     5292 
317000000     -1388.02    2876.4918    4600.3798     1568.762    2695.7497    308.72816     5292 
318000000   -1372.8726    2944.5832    4652.9176    1605.1361    2712.3196    312.25394     5291 
319000000   -1419.5812    2752.5324    4651.0662    1536.3901    2635.7235    312.12969     5292 
320000000   -1386.5998    2857.4608    4577.3533    1538.1737    2705.8869    307.18287     5293 
321000000   -1403.1211    2871.1724    4696.0705    1601.9731    2672.3205    315.14989     5292 
322000000   -1444.5968    2882.0075    4627.6497    1558.5112    2768.0931    310.55822     5293 
323000000   -1412.0824    2842.5019    4571.3316    1570.7772    2683.8072    306.77876     5293 
324000000   -1365.5086    2909.7492    4647.2249    1551.1608     2724.097     311.8719     5291 
325000000   -1389.4174     2918.694    4700.9553    1551.1173    2756.9941    315.47771     5292 
326000000   -1329.3518    2921.9232      4498.54    1593.8556    2657.4194    301.89377     5292 
327000000   -1410.5061    2882.4338    4774.1705    1546.3857    2746.5542    320.39113     5290 
328000000   -1426.0718    2838.7251    4620.1693    1556.5112    2708.2857    310.05622     5291 
329000000   -1379.3583    2857.9423    4669.9828    1549.2969    2688.0037    313.39917     5292 
330000000   -1364.4973    2957.1095    4587.0962     1619.008    2702.5988    307.83671     5293 
331000000   -1408.3533    2889.3086    4503.8774    1610.8374    2686.8245    302.25195     5293 
332000000   -1381.5425    2917.7487    4627.8228     1571.463    2727.8282    310.56984     5294 
333000000   -1382.1299    2749.2106    4642.1004    1476.4523    2654.8882    311.52801     5293 
334000000   -1380.1683    2904.5109    4490.3549    1552.9752    2731.7039    301.34447     5294 
335000000   -1405.1959    2843.7673    4611.0822    1535.3259    2713.6374    309.44639     5295 
336000000   -1324.0995    2960.9219    4580.9915    1596.3084    2688.7129    307.42703     5294 
337000000   -1348.4726    2931.3071    4630.6489    1523.3379    2756.4418     310.7595     5292 
338000000   -1360.3992    2924.2335    4453.3212    1563.5912    2721.0415    298.85917     5293 
339000000   -1411.5575     2866.468    4626.5062    1574.6852    2703.3403    310.48148     5294 
340000000   -1351.6808    2890.3268    4615.4349    1571.8127    2670.1949     309.7385     5293 
341000000   -1341.1966    2861.5021     4661.543    1554.9117     2647.787    312.83278     5293 
342000000   -1403.6104    2903.1243    4617.6322    1520.9039    2785.8308    309.88596     5292 
343000000   -1412.9906    2858.0575    4594.6579    1556.8117    2714.2364    308.34417     5291 
344000000   -1358.2934    2886.1594    4713.1883    1545.8525    2698.6003    316.29866     5291 
345000000   -1379.6692    2886.7855     4626.182    1550.0327     2716.422    310.45973     5290 
346000000   -1375.9128    2941.6705     4604.779    1601.6832    2715.9002    309.02339     5292 
347000000   -1380.4503    2843.1468    4661.5001    1561.3039    2662.2932     312.8299     5288 
348000000   -1400.5822    2813.7313    4652.2044    1534.4237    2679.8897    312.20607     5290 
349000000   -1399.8645    2859.5568    4663.8009    1527.3456    2732.0758    312.98431     5290 
350000000    -1348.148    2899.9001    4457.2788    1571.7646    2676.2836    299.12476     5291 
351000000   -1386.9689    2866.5521    4603.6295      1557.91     2695.611    308.94625     5292 
352000000   -1366.0174    2862.6097    4640.8805    1559.7418    2668.8854    311.44613     5292 
353000000   -1360.7768    2883.9244    4663.2739    1531.5352    2713.1659    312.94894     5292 
354000000   -1359.3076    2926.7061    4632.3867    1579.3475    2706.6662    310.87612     5293 
355000000   -1385.8034    2880.2262    4615.8764    1589.6145    2676.4151    309.76813     5293 
356000000   -1390.5511    2863.6956    4570.1739    1530.4757     2723.771    306.70106     5293 
357000000   -1383.1193    2904.2218    4575.3277    1572.5469    2714.7941    307.04693     5292 
358000000   -1384.1524    2873.3566    4631.6926    1578.5553    2678.9537    310.82954     5293 
359000000   -1446.6141    2783.9673    4679.2447    1518.7218    2711.8596    314.02073     5294 
360000000    -1368.193    2935.4412    4597.9917    1585.4941    2718.1401     308.5679     5294 
361000000   -1392.5163    2889.3071    4614.1481    1566.3697    2715.4537    309.65215     5294 
362000000   -1390.6918    2920.2826    4635.5774    1595.0611    2715.9133    311.09025     5293 
363000000    -1368.898    2815.8054    4712.6136    1500.8697    2683.8336    316.26009     5292 
364000000   -1369.6494    2845.7326    4729.6745     1556.082       2659.3    317.40503     5293 
365000000   -1388.7695    2885.3478    4627.1495    1556.7062    2717.4111    310.52466     5293 
366000000   -1338.5813    2813.0031    4605.9237     1499.476    2652.1084    309.10021     5293 
367000000   -1347.3212    2901.4614    4596.1822    1572.2342    2676.5483    308.44647     5293 
368000000   -1338.4867    2797.2557    4640.6872    1535.3106    2600.4318    311.43317     5292 
369000000   -1327.5667    2869.0812    4546.3992    1558.1545    2638.4935    305.10557     5293 
370000000    -1351.257     2871.931    4662.7036    1564.0417    2659.1463    312.91067     5293 
371000000   -1370.6313    2892.9191    4624.4087    1544.4021    2719.1483    310.34073     5294 
372000000   -1354.1837     2848.257    4546.1298     1549.674    2652.7668    305.08749     5294 
373000000    -1328.184    2874.3207    4651.0121    1498.3604    2704.1443    312.12606     5294 
374000000   -1367.7205    2906.5258    4608.7024    1564.0209    2710.2255    309.28669     5294 
375000000   -1395.2292    2880.4308    4615.9124     1543.474    2732.1861    309.77055     5294 
376000000   -1346.7324    2950.5348      4578.77    1537.1503    2760.1169    307.27795     5294 
377000000   -1361.6259    2930.4927    4595.3807     1549.299    2742.8197    308.39268     5294 
378000000   -1377.9151    2754.3761    4535.0572    1512.2799    2620.0113    304.34441     5294 
379000000    -1368.733    2911.5192    4558.2629    1550.5932    2729.6591    305.90173     5294 
380000000   -1416.7197    2914.0293    4545.6532     1547.576     2783.173     305.0555     5293 
381000000   -1380.4119    2831.3717    4584.1144    1540.3037      2671.48    307.63661     5294 
382000000   -1337.4449    2877.5075    4598.5028    1584.4437    2630.5087     308.6022     5294 
383000000   -1378.8934    2819.6277    4537.6577    1561.1992    2637.3219    304.51893     5293 
384000000   -1368.1268    2904.0267    4652.0299    1569.8083    2702.3451    312.19436     5294 
385000000   -1383.2327    2929.3778    4621.1877    1606.5076    2706.1029    310.12457     5294 
386000000   -1371.1112    2864.0138     4587.127      1535.66    2699.4649    307.83878     5294 
387000000    -1341.629    2943.8275    4687.2555    1572.9421    2712.5144    314.55833     5294 
388000000   -1349.9781    2878.6375    4574.7748    1562.9865    2665.6292    307.00983     5294 
389000000   -1396.7483    2866.4949    4605.7456    1546.5823    2716.6609    309.08826     5293 
390000000   -1385.6733    2975.3453    4654.6985    1576.4465     2784.572    312.37345     5293 
391000000   -1401.1575    2800.2999    4564.7054    1513.4977    2687.9598    306.33408     5293 
392000000   -1356.2871    2931.9241      4567.47    1546.4521    2741.7592    306.51961     5294 
393000000   -1328.5185    2895.9593    4686.1473    1552.8082    2671.6697    314.48396     5294 
394000000   -1347.9397    2864.9553    4645.9769    1546.5064    2666.3886    311.78815     5294 
395000000   -1384.4091    2894.2301    4597.3908    1548.8099    2729.8293    308.52757     5294 
396000000   -1357.2577    2913.9554    4648.4996    1618.7791     2652.434    311.95745     5295 
397000000   -1412.7449    2802.5649    4604.1585    1538.4278     2676.882    308.98175     5294 
398000000   -1350.8889    2855.8776    4587.3156    1544.0581    2662.7084    307.85143     5291 
399000000    -1364.977    2972.6405    4736.7908      1599.23    2738.3874    317.88261     5292 
400000000   -1379.0133    2892.2691     4535.498    1541.4615    2729.8209    304.37399     5293 
Loop time of 22060.7 on 10 procs for 100000000 steps with 5000 atoms

Performance: 9791.149 ns/day, 0.002 hours/ns, 4532.939 timesteps/s
99.7% CPU use with 10 MPI tasks x no OpenMP threads

MPI task timing breakdown:
Section |  min time  |  avg time  |  max time  |%varavg| %total
---------------------------------------------------------------
Pair    | 6477.7     | 7322.5     | 7953.6     | 586.9 | 33.19
Bond    | 1578.4     | 1593.9     | 1616.1     |  25.4 |  7.23
Neigh   | 2992.7     | 3017.3     | 3040.8     |  29.2 | 13.68
Comm    | 4890.4     | 5615.6     | 6842.4     | 805.8 | 25.45
Output  | 0.54595    | 0.54613    | 0.54625    |   0.0 |  0.00
Modify  | 3553       | 3580.6     | 3630.1     |  42.7 | 16.23
Other   |            | 930.4      |            |       |  4.22

Nlocal:    500 ave 528 max 471 min
Histogram: 1 1 0 1 2 2 1 0 1 1
Nghost:    620.3 ave 807 max 499 min
Histogram: 2 1 2 2 0 1 0 0 1 1
Neighs:    7099.9 ave 8764 max 5921 min
Histogram: 2 1 2 0 1 1 1 1 0 1

Total # of neighbors = 70999
Ave neighs/atom = 14.1998
Ave special neighs/atom = 7.4832
Neighbor list builds = 5039206
Dangerous builds = 0
System init for write_restart ...
Total wall time: 6:07:41
