LAMMPS (5 Jun 2019)
Reading restart file ...
  restart file = 5 Jun 2019, LAMMPS = 5 Jun 2019
WARNING: Restart file used different # of processors (../read_restart.cpp:740)
  restoring atom style full from restart
  orthogonal box = (-250 -250 -250) to (250 250 250)
  1 by 2 by 5 MPI processor grid
  restoring pair style lj/cut from restart
  restoring bond style harmonic from restart
  restoring angle style cosine from restart
  5000 atoms
  5291 bonds
  4600 angles
Finding 1-2 1-3 1-4 neighbors ...
  special bond factors lj:   1          1          1         
  special bond factors coul: 0          0          0         
  3 = max # of 1-2 neighbors
  4 = max # of 1-3 neighbors
  8 = max # of 1-4 neighbors
  16 = max # of special neighbors
  special bonds CPU = 0.0392879 secs
  read_restart CPU = 0.310601 secs
1000 atoms in group rxnSites
Neighbor list info ...
  update every 1 steps, delay 1 steps, check yes
  max neighbors/atom: 2000, page size: 100000
  master list distance cutoff = 26.9
  ghost atom cutoff = 26.9
  binsize = 13.45, bins = 38 38 38
  2 neighbor lists, perpetual/occasional/extra = 1 1 0
  (1) pair lj/cut, perpetual
      attributes: half, newton on
      pair build: half/bin/newton
      stencil: half/bin/3d/newton
      bin: standard
  (2) fix bond/create/random, occasional, copy from (1)
      attributes: half, newton on
      pair build: copy
      stencil: none
      bin: none
Setting up Verlet run ...
  Unit style    : real
  Current step  : 300000000
  Time step     : 25
WARNING: Inconsistent image flags (../domain.cpp:784)
Per MPI rank memory allocation (min/avg/max) = 10.27 | 10.56 | 11.11 Mbytes
Step E_pair PotEng KinEng E_bond E_angle Temp Bonds 
300000000   -1381.8686     2859.495    4683.8198    1505.9058    2735.4577    314.32776     5291 
301000000   -1444.7173    2814.7985    4575.4545    1563.2083    2696.3075    307.05544     5291 
302000000   -1392.6962    2803.8798    4564.0202    1505.5389    2691.0372     306.2881     5291 
303000000   -1373.4804    2944.4413    4613.5285    1588.7406    2729.1811    309.61056     5291 
304000000   -1388.4867    2818.8201    4592.7627    1521.5909    2685.7158    308.21699     5291 
305000000   -1333.9383    2930.9956    4648.5995    1596.4442    2668.4897    311.96415     5291 
306000000    -1402.448    2776.2889    4654.8731    1524.6846    2654.0523    312.38517     5292 
307000000   -1397.7473    2854.6866    4704.9498    1561.9246    2690.5092    315.74578     5292 
308000000     -1419.79    2847.1484    4643.3933    1492.2458    2774.6926    311.61477     5289 
309000000   -1416.4124    2835.8571    4650.5194    1504.7572    2747.5123      312.093     5290 
310000000   -1389.8373    2776.4668    4664.0637    1486.1656    2680.1385    313.00195     5290 
311000000   -1410.9244    2876.2794     4594.297    1551.2568    2735.9471    308.31995     5290 
312000000    -1427.798    2803.6949    4609.1652    1510.9424    2720.5506    309.31774     5291 
313000000   -1421.9584    2816.5979    4627.4113    1532.5058    2706.0505    310.54223     5292 
314000000   -1400.4581    2858.5467    4657.7054    1556.0156    2702.9891    312.57524     5292 
315000000   -1380.1676    2935.6209    4625.1667    1575.6162    2740.1723    310.39159     5293 
316000000   -1372.4595    2869.3501    4608.0478    1547.0472    2694.7624    309.24276     5292 
317000000   -1327.5037    2976.9124    4661.4733    1575.9281     2728.488     312.8281     5293 
318000000   -1404.0723    2845.8753    4525.1707    1577.6378    2672.3098    303.68094     5293 
319000000   -1373.5195    2852.7929    4630.1006    1558.5229    2667.7894     310.7227     5293 
320000000   -1364.9332    2832.9258    4646.9736    1556.2674    2641.5916    311.85504     5293 
321000000   -1377.8115     2852.656    4648.7647    1539.3735    2691.0941    311.97524     5292 
322000000   -1406.0324    2802.4401    4612.4429    1505.0053    2703.4671    309.53771     5292 
323000000   -1386.5451    2943.2879      4515.98     1590.294     2739.539    303.06416     5293 
324000000   -1360.8493    2811.7453    4676.2191    1498.3749    2674.2196    313.81768     5292 
325000000   -1340.7229    2850.6435     4594.799    1540.6623    2650.7041    308.35364     5293 
326000000    -1374.952    2858.9448    4654.6435    1549.8045    2684.0924    312.36976     5292 
327000000   -1331.4589    2921.4019    4647.5859    1581.2836    2671.5772    311.89613     5293 
328000000   -1382.1308    2845.5112    4508.5539     1541.536    2686.1059    302.56579     5293 
329000000   -1354.8501    2927.7895    4592.0502    1556.9284    2725.7112    308.16917     5293 
330000000   -1395.6565    2828.1976    4554.7493    1543.8397    2680.0144    305.66593     5293 
331000000   -1382.9362    2863.9508    4589.4944    1569.8182    2677.0688    307.99765     5293 
332000000   -1427.2474    2833.8634    4708.1848    1528.6625    2732.4483    315.96288     5292 
333000000   -1378.1645    2921.0143    4566.2925    1527.3424    2771.8365    306.44059     5293 
334000000   -1387.9181     2758.472    4645.0191    1477.2003    2669.1898    311.72387     5291 
335000000   -1326.0423    2936.0778    4596.9393    1564.1484    2697.9717    308.49727     5293 
336000000   -1383.4019    2845.2874     4634.169    1562.8004    2665.8888    310.99573     5293 
337000000   -1450.4578    2815.9103    4701.8372    1552.0122    2714.3559     315.5369     5293 
338000000   -1349.5981    3000.3287    4646.2537    1576.7948     2773.132    311.80673     5289 
339000000   -1366.0866    2987.0636    4646.9917    1606.1169    2747.0333    311.85625     5294 
340000000   -1354.0534    2934.6412    4662.4139    1643.9229    2644.7717    312.89123     5294 
341000000   -1352.9554    2982.1173     4616.653    1627.2519    2707.8208    309.82024     5294 
342000000   -1361.5099    2889.9965     4577.297    1575.0841    2676.4224    307.17909     5295 
343000000   -1328.0445     2877.844    4568.5349    1539.7074    2666.1811    306.59107     5294 
344000000   -1332.8345    2931.5694    4626.9319    1537.6304    2726.7735    310.51006     5296 
345000000   -1349.0804    2906.3862    4687.4809    1540.9705    2714.4961    314.57345     5293 
346000000   -1352.2742    2903.4845    4616.9224    1554.0007     2701.758    309.83832     5294 
347000000   -1338.9161    2884.5574    4562.2841    1528.6448    2694.8287    306.17159     5294 
348000000   -1330.2233     2885.333    4638.6863    1537.2108    2678.3455    311.29889     5296 
349000000   -1417.2622    2817.1295    4666.8966    1515.1259    2719.2658    313.19206     5296 
350000000   -1389.9768    2924.0433     4582.749    1610.3012    2703.7189    307.54497     5295 
351000000   -1375.1104    2930.8852    4554.6488    1617.0422    2688.9534    305.65919     5295 
352000000   -1374.0656    2942.5591    4616.9272    1561.8552    2754.7694    309.83865     5294 
353000000   -1354.5907    2931.4137    4561.4448    1590.1396    2695.8648    306.11526     5294 
354000000   -1309.5452    2959.4338     4531.579     1576.155     2692.824    304.11099     5294 
355000000   -1305.2758    2907.7361    4623.0657    1553.0704    2659.9416     310.2506     5294 
356000000   -1352.6242    2881.2526    4526.1528    1560.9363    2672.9406    303.74685     5292 
357000000   -1378.1095    2822.7291    4619.9087    1525.2644    2675.5742    310.03874     5292 
358000000   -1358.3258    2953.0301    4677.1106     1562.741     2748.615    313.87751     5293 
359000000   -1345.1699    2931.9374    4574.5363    1566.1088    2710.9986    306.99382     5293 
360000000   -1366.3823    2806.2152    4611.5498    1478.9083    2693.6892    309.47778     5293 
361000000   -1334.7181    2994.2182    4627.0834    1605.7528    2723.1834    310.52022     5294 
362000000   -1325.7016    2952.4495    4589.4789    1590.3855    2687.7656    307.99661     5292 
363000000   -1367.2444    2934.0369    4663.2421    1599.3188    2701.9626    312.94681     5293 
364000000   -1323.6538    2930.1852    4737.1052    1564.0346    2689.8044     317.9037     5294 
365000000    -1409.244    2883.3391    4670.4263     1581.526    2711.0571    313.42894     5294 
366000000   -1407.1084    2905.2452    4623.7459    1559.6206    2752.7331    310.29625     5294 
367000000   -1350.0195    2920.0279    4689.0092    1594.8965    2675.1509    314.67602     5295 
368000000   -1330.7647    2975.3419    4605.1057    1621.9777    2684.1289    309.04532     5295 
369000000   -1428.6313    2801.8272    4565.7572    1521.2278    2709.2306    306.40467     5294 
370000000   -1362.1693    2892.4456    4622.0718    1522.9028     2731.712     310.1839     5294 
371000000   -1355.3781    2988.3759    4545.7505    1585.3553    2758.3987    305.06203     5294 
372000000   -1399.9392    2899.1684    4601.0097    1573.7916     2725.316    308.77043     5292 
373000000   -1382.1264    2869.9384    4652.2363    1536.8107    2715.2542    312.20821     5291 
374000000   -1352.7618    2969.2834    4607.7874    1560.4645    2761.5807    309.22528     5291 
375000000    -1344.167     2974.166    4677.4681    1563.7812    2754.5518     313.9015     5292 
376000000   -1354.4072    2954.6002    4658.9052    1585.1667    2723.8407    312.65576     5292 
377000000   -1314.0325    2973.4401    4621.4917    1539.4582    2748.0144    310.14497     5292 
378000000   -1411.9706    2843.3256    4632.0264    1539.1454    2716.1508    310.85194     5291 
379000000   -1353.6231    2949.4598     4534.854    1594.6647    2708.4182    304.33077     5290 
380000000   -1377.1353    2866.6308    4615.0168    1526.0811     2717.685    309.71044     5290 
381000000    -1328.726    2935.9043    4712.5955    1531.1079    2733.5225    316.25888     5291 
382000000   -1332.2085    2922.8666    4593.0848    1561.1584    2693.9167     308.2386     5291 
383000000   -1341.2844    2973.3878    4579.7091    1570.9789    2743.6933    307.34097     5290 
384000000   -1300.6484    3025.7382    4643.5783    1590.3766      2736.01    311.62718     5292 
385000000   -1341.2513    2931.3581    4643.4851     1554.036    2718.5734    311.62093     5292 
386000000   -1297.4499    2953.7232    4630.5681    1531.3628    2719.8102    310.75408     5293 
387000000     -1335.87    2933.6602    4613.9372    1556.8328    2712.6973    309.63799     5293 
388000000   -1300.1966    2902.1762    4640.1404    1521.1834    2681.1894    311.39647     5293 
389000000   -1313.5325    3042.2417    4608.1339    1631.0353    2724.7389    309.24853     5293 
390000000   -1350.9974    2953.2626    4535.2793    1573.1858    2731.0743    304.35932     5292 
391000000   -1352.2079    2926.0016    4552.3576     1552.596    2725.6136    305.50543     5292 
392000000   -1356.3884     2918.928    4546.7129     1556.615    2718.7015    305.12662     5290 
393000000   -1294.6565    2949.6054    4492.7175    1532.5244    2711.7375    301.50302     5291 
394000000   -1356.5866    2940.9338    4619.1137    1586.9065     2710.614    309.98538     5290 
395000000   -1370.4369    2927.9678    4659.3992    1537.0886    2761.3161    312.68891     5291 
396000000   -1380.2979    2892.1842    4622.4959     1549.098    2723.3841    310.21236     5290 
397000000   -1332.8024    2945.2611     4625.303    1553.5178    2724.5458    310.40074     5291 
398000000   -1360.3868    2904.8826    4575.3215    1558.6151    2706.6543    307.04652     5291 
399000000   -1311.9384    2992.5132    4625.9579    1559.9562    2744.4954    310.44469     5291 
400000000   -1357.1345     2918.144    4648.9278    1575.8699    2699.4086    311.98619     5290 
Loop time of 22304.9 on 10 procs for 100000000 steps with 5000 atoms

Performance: 9683.953 ns/day, 0.002 hours/ns, 4483.312 timesteps/s
99.6% CPU use with 10 MPI tasks x no OpenMP threads

MPI task timing breakdown:
Section |  min time  |  avg time  |  max time  |%varavg| %total
---------------------------------------------------------------
Pair    | 6373.1     | 7264.9     | 8113.5     | 694.9 | 32.57
Bond    | 1571.8     | 1591.3     | 1625.2     |  41.8 |  7.13
Neigh   | 2982.1     | 3011.4     | 3042.7     |  33.6 | 13.50
Comm    | 5071.8     | 5886.7     | 7174.8     | 891.5 | 26.39
Output  | 0.63318    | 0.6333     | 0.63342    |   0.0 |  0.00
Modify  | 3537.4     | 3566.3     | 3698.1     |  75.6 | 15.99
Other   |            | 983.7      |            |       |  4.41

Nlocal:    500 ave 543 max 477 min
Histogram: 2 1 1 2 2 1 0 0 0 1
Nghost:    613.5 ave 828 max 478 min
Histogram: 2 1 1 2 2 0 0 1 0 1
Neighs:    6826.7 ave 7790 max 5439 min
Histogram: 1 0 0 1 1 2 2 0 2 1

Total # of neighbors = 68267
Ave neighs/atom = 13.6534
Ave special neighs/atom = 7.4748
Neighbor list builds = 5039117
Dangerous builds = 0
System init for write_restart ...
Total wall time: 6:11:46
