LAMMPS (5 Jun 2019)
Reading restart file ...
  restart file = 5 Jun 2019, LAMMPS = 5 Jun 2019
WARNING: Restart file used different # of processors (../read_restart.cpp:740)
  restoring atom style full from restart
  orthogonal box = (-250 -250 -250) to (250 250 250)
  1 by 2 by 5 MPI processor grid
  restoring pair style lj/cut from restart
  restoring bond style harmonic from restart
  restoring angle style cosine from restart
  5000 atoms
  5291 bonds
  4600 angles
Finding 1-2 1-3 1-4 neighbors ...
  special bond factors lj:   1          1          1         
  special bond factors coul: 0          0          0         
  3 = max # of 1-2 neighbors
  4 = max # of 1-3 neighbors
  8 = max # of 1-4 neighbors
  16 = max # of special neighbors
  special bonds CPU = 0.00979713 secs
  read_restart CPU = 0.169335 secs
1000 atoms in group rxnSites
Neighbor list info ...
  update every 1 steps, delay 1 steps, check yes
  max neighbors/atom: 2000, page size: 100000
  master list distance cutoff = 26.9
  ghost atom cutoff = 26.9
  binsize = 13.45, bins = 38 38 38
  2 neighbor lists, perpetual/occasional/extra = 1 1 0
  (1) pair lj/cut, perpetual
      attributes: half, newton on
      pair build: half/bin/newton
      stencil: half/bin/3d/newton
      bin: standard
  (2) fix bond/create/random, occasional, copy from (1)
      attributes: half, newton on
      pair build: copy
      stencil: none
      bin: none
Setting up Verlet run ...
  Unit style    : real
  Current step  : 300000000
  Time step     : 25
WARNING: Inconsistent image flags (../domain.cpp:784)
Per MPI rank memory allocation (min/avg/max) = 10.27 | 10.56 | 11.11 Mbytes
Step E_pair PotEng KinEng E_bond E_angle Temp Bonds 
300000000   -1381.8686     2859.495    4683.8198    1505.9058    2735.4577    314.32776     5291 
301000000   -1449.5459    2797.0915    4640.6485    1555.4239    2691.2135    311.43057     5291 
302000000   -1400.2094    2817.3363    4683.5042    1519.6306    2697.9151    314.30658     5291 
303000000   -1359.7168    2942.9707    4518.6771    1583.7924    2718.8951    303.24515     5290 
304000000   -1375.2144    2783.8136      4582.32     1515.148      2643.88    307.51618     5289 
305000000   -1385.6748    2725.6601    4598.6887    1462.4297    2648.9052    308.61468     5288 
306000000   -1387.3716    2883.5565     4624.957    1567.8123    2703.1159    310.37752     5287 
307000000   -1408.6869    2815.5346    4581.4002    1530.7231    2693.4984    307.45445     5290 
308000000   -1420.5163    2816.4953    4592.2202    1562.8389    2674.1727    308.18058     5289 
309000000    -1389.028     2838.651    4592.1321    1576.2286    2651.4503    308.17466     5289 
310000000   -1423.9427    2850.0809    4557.9156    1525.3127    2748.7108    305.87842     5291 
311000000   -1374.0156    2768.1917     4545.893    1506.5243     2635.683    305.07159     5292 
312000000   -1422.7983    2833.7771    4668.2937     1559.772    2696.8034    313.28581     5293 
313000000   -1422.7811    2823.6457    4620.8677    1566.3288     2680.098    310.10309     5292 
314000000   -1378.4094    2854.7025    4526.4349    1530.0487    2703.0632    303.76577     5292 
315000000   -1348.2043    2898.3988    4508.0811    1584.1194    2662.4836    302.53406     5293 
316000000   -1420.6907    2725.4669    4728.5574    1539.5573    2606.6003    317.33007     5293 
317000000   -1390.5797    2821.1579    4628.6349    1538.1212    2673.6164    310.62434     5294 
318000000   -1368.0477    2816.3727    4775.1053     1527.561    2656.8594    320.45387     5294 
319000000   -1400.4415     2894.326    4609.5501    1607.8034    2686.9641    309.34358     5294 
320000000   -1393.3602    2845.3701    4604.7696     1565.677    2673.0532    309.02276     5294 
321000000   -1418.7151    2779.1979    4635.7912    1498.0772    2699.8359    311.10459     5294 
322000000   -1401.5119    2881.9373    4556.8736    1515.6357    2767.8134    305.80849     5293 
323000000   -1387.3119     2841.571    4591.5719    1550.5412    2678.3417    308.13707     5293 
324000000   -1416.3248    2921.8286    4634.7103    1591.9091    2746.2443    311.03206     5292 
325000000   -1404.2968    2858.2264    4625.0076    1600.9824    2661.5409    310.38091     5293 
326000000   -1405.4538    2883.3474    4669.5315     1546.885    2741.9161    313.36888     5294 
327000000   -1382.9278    2900.7306     4599.039    1593.7431    2689.9154    308.63819     5294 
328000000   -1456.4452     2829.446     4768.223    1571.7772     2714.114      319.992     5293 
329000000   -1353.0091    2895.9235    4711.2823    1617.4926    2631.4399    316.17075     5292 
330000000   -1389.3951    2833.6192    4684.8052    1562.1307    2660.8836    314.39389     5293 
331000000    -1411.057    2887.9677    4661.6226     1581.742    2717.2827    312.83813     5293 
332000000   -1398.6969    2860.5095    4560.1034    1550.8539    2708.3525    306.02524     5292 
333000000   -1375.8508    2865.7745    4509.2695    1575.5528    2666.0726    302.61382     5293 
334000000   -1404.2395    2894.1926    4637.0467    1571.9754    2726.4567    311.18885     5293 
335000000   -1361.5161    2905.5294    4637.9345    1564.1506    2702.8949    311.24843     5293 
336000000   -1374.1436    2955.0588      4674.37    1599.7042    2729.4983    313.69359     5293 
337000000   -1404.0277     2869.828    4603.5459    1575.0525    2698.8032    308.94064     5292 
338000000   -1364.0243    2904.8393    4669.1971    1534.1765    2734.6871    313.34644     5292 
339000000   -1386.7678      2805.86    4650.7569     1534.555    2658.0728    312.10893     5292 
340000000   -1398.1109    2818.1204    4687.2762    1515.1725    2701.0588    314.55972     5292 
341000000   -1356.8507    2857.9548    4645.5204    1530.6962    2684.1093    311.75752     5291 
342000000   -1377.8931    2963.4538    4531.1646    1595.6054    2745.7416    304.08318     5293 
343000000   -1344.1508    2869.0899    4561.6153    1565.4773    2647.7634    306.12671     5293 
344000000   -1350.9996    2948.1413    4638.1216    1603.0056    2696.1354    311.26099     5293 
345000000   -1450.7108    2797.6356    4673.5402    1544.0253    2704.3211     313.6379     5292 
346000000    -1395.984    2861.0245    4609.5952    1540.7294    2716.2791     309.3466     5292 
347000000   -1373.6122    2903.6557    4631.7482    1566.9993    2710.2686    310.83327     5293 
348000000    -1398.858     2896.378    4570.5617    1555.9087    2739.3274    306.72709     5291 
349000000   -1355.2525    2871.4434    4687.2755    1565.0013    2661.6945    314.55967     5292 
350000000   -1427.4709    2826.0217    4575.6057    1587.8279    2665.6646    307.06559     5291 
351000000     -1381.79    2982.6535    4656.1523    1606.9627    2757.4808    312.47102     5292 
352000000   -1431.8979    2878.0965    4561.0839    1555.5711    2754.4234    306.09105     5293 
353000000   -1374.5089    2905.1618    4599.7359    1589.2583    2690.4124    308.68495     5292 
354000000   -1353.4994    2908.7124    4723.6927    1581.4861    2680.7257     317.0036     5293 
355000000   -1317.7479    2909.3396    4563.2542    1566.5021    2660.5854    306.23669     5292 
356000000   -1341.5646    2960.0137    4620.0544    1616.8109    2684.7674    310.04851     5293 
357000000    -1387.943    2829.0734    4654.6008    1559.5077    2657.5087    312.36689     5291 
358000000   -1353.3368    2892.2775     4565.871    1571.0272    2674.5872    306.41231     5292 
359000000   -1403.6032    2862.1178    4674.1035    1548.7648    2716.9563    313.67571     5293 
360000000   -1367.8733    2938.7741    4691.3909    1542.7673      2763.88    314.83585     5293 
361000000   -1394.0199    2808.2341    4624.2639    1556.5567    2645.6973    310.33101     5293 
362000000   -1383.1281    2815.0589    4740.7694    1491.5945    2706.5925    318.14961     5293 
363000000    -1384.364    2898.1732    4615.1651    1560.1991    2722.3381     309.7204     5293 
364000000   -1393.5506    2832.0576     4684.729    1569.1658    2656.4425    314.38878     5292 
365000000   -1390.7705    2860.7249    4624.2456    1537.4739    2714.0216    310.32978     5293 
366000000   -1366.8884    2879.3879    4609.8707    1568.6208    2677.6555    309.36509     5291 
367000000   -1334.7157    2914.6511    4673.6811    1564.7519    2684.6148    313.64736     5292 
368000000   -1356.0853    2857.5399    4670.8242    1526.6571    2686.9681    313.45563     5291 
369000000   -1357.8935    2921.5869    4591.3929    1553.6332    2725.8472    308.12506     5289 
370000000   -1350.5768    2862.7632     4660.024    1513.0739    2700.2661    312.73084     5287 
371000000   -1354.4496    2874.4926    4591.2528    1511.6413    2717.3008    308.11565     5290 
372000000   -1368.8815    2860.9788    4612.8764    1531.9466    2697.9137     309.5668     5290 
373000000   -1319.7953    2936.7548    4620.3865    1570.2512    2686.2989     310.0708     5290 
374000000   -1377.6456    2916.6863    4591.7797    1592.6798    2701.6521    308.15101     5290 
375000000   -1434.9498    2764.4696    4649.5195    1526.9426    2672.4768    312.02589     5288 
376000000   -1340.1905    2871.4743    4541.7973    1581.9565    2629.7082    304.79673     5291 
377000000   -1351.4067    2845.8223    4624.4695    1544.8288    2652.4002     310.3448     5290 
378000000   -1383.3904    2902.5773     4612.894    1594.0903    2691.8773    309.56798     5288 
379000000   -1399.1405    2866.7616    4604.2922    1572.5186    2693.3835    308.99072     5288 
380000000   -1367.5096    2985.7945    4594.8026    1559.2099    2794.0943    308.35388     5289 
381000000   -1314.0624    2978.9639    4599.6442    1575.3094     2717.717     308.6788     5290 
382000000   -1313.9843    2930.6732    4524.6233    1567.7828    2676.8748     303.6442     5289 
383000000   -1328.9255    2926.0671       4619.9    1581.3215    2673.6711    310.03815     5289 
384000000   -1359.7635    2824.8733    4548.3646     1521.778    2662.8588    305.23746     5288 
385000000   -1387.9244    2878.6853    4623.6021    1537.3085    2729.3012    310.28659     5292 
386000000   -1346.9656    2969.1759     4639.375    1559.4216    2756.7199     311.3451     5290 
387000000   -1352.5824    2876.3516    4665.6306    1540.6931    2688.2409     313.1071     5291 
388000000   -1376.4975    2876.5283    4536.4481    1557.9932    2695.0326    304.43775     5291 
389000000    -1382.025    2947.0177    4588.8001     1560.457    2768.5856    307.95106     5289 
390000000   -1372.4302     2945.834    4553.9548    1558.3569    2759.9072    305.61262     5291 
391000000   -1313.1551    2904.8193    4700.1283    1579.6708    2638.3036    315.42221     5291 
392000000   -1393.3802    2882.1446    4567.6969    1531.2223    2744.3026    306.53484     5293 
393000000   -1342.6989    2907.6306    4529.1951    1520.2292    2730.1003    303.95101     5294 
394000000   -1346.3937    2884.1772    4597.8662     1590.156    2640.4149    308.55948     5294 
395000000    -1341.238     2936.894    4565.1059    1563.8362    2714.2958    306.36096     5294 
396000000   -1375.9185    2918.6783    4658.1576    1570.3681    2724.2287    312.60559     5295 
397000000   -1333.3872    2926.4338    4673.8565    1574.3404    2685.4806    313.65913     5295 
398000000   -1351.5751    2898.6666    4611.7606    1524.9798    2725.2618    309.49192     5295 
399000000   -1371.2067    2936.4126    4581.0008    1567.1868    2740.4325    307.42766     5295 
400000000   -1351.6527    2926.9091    4622.5546    1553.3404    2725.2215     310.2163     5294 
Loop time of 22681.5 on 10 procs for 100000000 steps with 5000 atoms

Performance: 9523.175 ns/day, 0.003 hours/ns, 4408.877 timesteps/s
99.7% CPU use with 10 MPI tasks x no OpenMP threads

MPI task timing breakdown:
Section |  min time  |  avg time  |  max time  |%varavg| %total
---------------------------------------------------------------
Pair    | 6522.1     | 7371.1     | 8259.7     | 637.1 | 32.50
Bond    | 1571       | 1594.5     | 1631.8     |  45.6 |  7.03
Neigh   | 3008.4     | 3032.5     | 3055.3     |  28.3 | 13.37
Comm    | 5277.5     | 6161.7     | 7307.7     | 791.9 | 27.17
Output  | 0.59727    | 0.59735    | 0.59742    |   0.0 |  0.00
Modify  | 3563.9     | 3586.4     | 3635.5     |  32.2 | 15.81
Other   |            | 934.8      |            |       |  4.12

Nlocal:    500 ave 524 max 459 min
Histogram: 1 0 0 0 2 2 0 0 4 1
Nghost:    609.2 ave 789 max 499 min
Histogram: 2 2 0 3 1 0 0 0 0 2
Neighs:    6950.6 ave 7904 max 6029 min
Histogram: 1 1 0 1 4 0 0 1 1 1

Total # of neighbors = 69506
Ave neighs/atom = 13.9012
Ave special neighs/atom = 7.4872
Neighbor list builds = 5038990
Dangerous builds = 0
System init for write_restart ...
Total wall time: 6:18:02
