LAMMPS data file via write_data, version 5 Jun 2019, timestep = 200000000

5000 atoms
4 atom types
5251 bonds
3 bond types
4600 angles
2 angle types

-2.5000000000000000e+02 2.5000000000000000e+02 xlo xhi
-2.5000000000000000e+02 2.5000000000000000e+02 ylo yhi
-2.5000000000000000e+02 2.5000000000000000e+02 zlo zhi

Masses

1 1000
2 1000
3 1000
4 1000

Pair Coeffs # lj/cut

1 0.3 10
2 0.3 10
3 0.3 10
4 0.3 10

Bond Coeffs # harmonic

1 3 10
2 3 10
3 1.8 11.22

Angle Coeffs # cosine

1 2
2 2

Atoms # full

3054 123 4 0.0000000000000000e+00 -4.1138189127234128e+01 -1.1545996268536626e+01 -1.6853420042508736e+02 0 0 0
3053 123 4 0.0000000000000000e+00 -4.2587509342208826e+01 -1.5332682365834427e+00 -1.6750570498385025e+02 0 0 0
1453 59 2 0.0000000000000000e+00 -2.6825667237407707e+01 -4.3040405963363597e+01 -1.5354435973903065e+02 0 0 0
3056 123 4 0.0000000000000000e+00 -4.0735050169578315e+01 -2.6076034291037562e+01 -1.5389475243637486e+02 0 0 0
3055 123 4 0.0000000000000000e+00 -3.9472122777275281e+01 -1.9070650894699316e+01 -1.6135219801146565e+02 0 0 0
2240 90 2 0.0000000000000000e+00 -2.1765768399920130e+01 -1.7582415106181845e+01 -1.6103585553956697e+02 0 0 0
2237 90 2 0.0000000000000000e+00 -4.2100376561187822e+01 2.7607257323727454e+00 -1.5471827732132670e+02 0 0 0
2238 90 1 0.0000000000000000e+00 -3.6556745929676211e+01 -6.1938673182642745e+00 -1.5479623426863265e+02 0 0 0
2239 90 2 0.0000000000000000e+00 -2.7233395597776642e+01 -9.6505806149416706e+00 -1.5696902877387504e+02 0 0 0
3415 137 4 0.0000000000000000e+00 -6.7948701724189291e+01 5.2051101428819893e+00 -1.5318903206707392e+02 0 0 0
2236 90 2 0.0000000000000000e+00 -4.7643351924646559e+01 1.0380566231371587e+01 -1.5453507208364613e+02 0 0 0
3052 123 4 0.0000000000000000e+00 -4.3795165946266195e+01 8.0143757616656082e+00 -1.6444578499537556e+02 0 0 0
3051 123 3 0.0000000000000000e+00 -3.9596214835928727e+01 1.6265144260404938e+01 -1.6071258866310140e+02 0 0 0
2144 86 1 0.0000000000000000e+00 -1.8260432914664058e+01 5.3396244916229554e+00 -1.6143189847394746e+02 0 0 0
2143 86 2 0.0000000000000000e+00 -2.2931305667466251e+01 1.1506136721636643e+01 -1.5514463646791882e+02 0 0 0
3058 123 4 0.0000000000000000e+00 -3.2728467513491580e+01 -4.0031982571566679e+01 -1.4253877634622657e+02 0 0 0
1454 59 2 0.0000000000000000e+00 -1.9067053880775489e+01 -4.4967770068348912e+01 -1.4718797203958161e+02 0 0 0
1455 59 2 0.0000000000000000e+00 -1.7739462523959688e+01 -4.6838154519669814e+01 -1.3770626319441843e+02 0 0 0
3410 137 4 0.0000000000000000e+00 -5.0645261791912418e+01 -2.9632258209458175e+01 -1.3796484864358331e+02 0 0 0
3057 123 3 0.0000000000000000e+00 -3.6204603075666959e+01 -3.2439012162161490e+01 -1.4766812992703308e+02 0 0 0
1452 59 2 0.0000000000000000e+00 -2.6097397539355541e+01 -3.4082698846415362e+01 -1.4942992102750409e+02 0 0 0
1451 59 1 0.0000000000000000e+00 -2.5522882814531961e+01 -2.8981344452568457e+01 -1.4169116182053801e+02 0 0 0
3411 137 4 0.0000000000000000e+00 -4.7405997302104169e+01 -2.2692212435483086e+01 -1.4506822279776111e+02 0 0 0
3412 137 4 0.0000000000000000e+00 -5.1711631770494982e+01 -1.3010364634610202e+01 -1.4622725606643311e+02 0 0 0
401 17 1 0.0000000000000000e+00 -3.6043887212030526e+01 -2.1527071423016302e+01 -1.4445795903552258e+02 0 0 0
3000 120 3 0.0000000000000000e+00 -4.0372170579564802e+01 -1.0973454208320364e+01 -1.4465769783566572e+02 0 0 0
402 17 2 0.0000000000000000e+00 -2.6558942791585270e+01 -2.0194620885406124e+01 -1.4725132548275462e+02 0 0 0
1055 43 2 0.0000000000000000e+00 -2.3539607460004238e+01 -1.8048711238363790e+01 -1.3757374600608489e+02 0 0 0
3414 137 4 0.0000000000000000e+00 -6.4146984503153618e+01 -1.1170474818394678e+00 -1.4635032598555327e+02 0 0 0
4481 180 4 0.0000000000000000e+00 -7.0360870690751298e+01 -9.5966878638306117e+00 -1.3921108915311294e+02 0 0 0
3413 137 3 0.0000000000000000e+00 -5.6105673202482812e+01 -4.7027078864923437e+00 -1.4158250804536456e+02 0 0 0
2021 81 2 0.0000000000000000e+00 -3.9648639630375975e+01 -1.5623721751393438e-01 -1.4460461101943952e+02 0 0 0
2999 120 4 0.0000000000000000e+00 -3.1653228422025553e+01 -6.8280726272908332e+00 -1.4200636596912983e+02 0 0 0
4473 179 4 0.0000000000000000e+00 -2.4581488085568672e+01 3.2045054478186903e+00 -1.4717905814894470e+02 0 0 0
4472 179 4 0.0000000000000000e+00 -1.7944659772885164e+01 -3.8385895105901229e+00 -1.4465961365410300e+02 0 0 0
3416 137 4 0.0000000000000000e+00 -6.3739742274811825e+01 1.3394470958076347e+01 -1.4876346086916084e+02 0 0 0
2019 81 1 0.0000000000000000e+00 -5.7816059161102324e+01 5.4970097010693646e+00 -1.4298533918191609e+02 0 0 0
2020 81 2 0.0000000000000000e+00 -4.8391336574896116e+01 4.9616085597653283e+00 -1.4609396575243707e+02 0 0 0
2022 81 2 0.0000000000000000e+00 -3.2799016949505344e+01 5.4203288166715060e+00 -1.3887925267321594e+02 0 0 0
4474 179 4 0.0000000000000000e+00 -3.0256295740610522e+01 1.1544854767960228e+01 -1.4716740996055742e+02 0 0 0
2024 81 2 0.0000000000000000e+00 -2.4975745474585736e+01 1.3923202815363638e+01 -1.3855877705993311e+02 0 0 0
3060 123 4 0.0000000000000000e+00 -3.2318967197803538e+01 -5.6704088081926635e+01 -1.3087824332909167e+02 0 0 0
4464 179 4 0.0000000000000000e+00 -1.7816197561029778e+01 -5.3476974397987441e+01 -1.2845276842361199e+02 0 0 0
3059 123 4 0.0000000000000000e+00 -3.1349899587634166e+01 -4.7857027081228573e+01 -1.3610132516852906e+02 0 0 0
4461 179 4 0.0000000000000000e+00 -4.1324163060540712e+01 -4.2948224186122729e+01 -1.2321837777557019e+02 0 0 0
4462 179 4 0.0000000000000000e+00 -3.1282787093134736e+01 -4.4974549443765540e+01 -1.2503201781277431e+02 0 0 0
4463 179 3 0.0000000000000000e+00 -2.0913390933404610e+01 -4.4695367143784893e+01 -1.2493331628759022e+02 0 0 0
3626 146 3 0.0000000000000000e+00 -6.4999056233496802e+01 -2.6522655303777402e+01 -1.2639643769098056e+02 0 0 0
2250 90 1 0.0000000000000000e+00 -6.0568025583422354e+01 -3.7452894102189411e+01 -1.2803111781488596e+02 0 0 0
2249 90 2 0.0000000000000000e+00 -5.2259917675437151e+01 -3.2066779240638496e+01 -1.2554435082785029e+02 0 0 0
3409 137 4 0.0000000000000000e+00 -4.2813573347971989e+01 -3.2639987955078134e+01 -1.3217028588639221e+02 0 0 0
3408 137 4 0.0000000000000000e+00 -3.3046263234638062e+01 -3.2655302196014247e+01 -1.2901488424886955e+02 0 0 0
3407 137 3 0.0000000000000000e+00 -2.5110653171260353e+01 -2.6596524150278746e+01 -1.3112669901630613e+02 0 0 0
2245 90 2 0.0000000000000000e+00 -2.1279368708463622e+01 -3.2634694790275091e+01 -1.2428847891508515e+02 0 0 0
2244 90 1 0.0000000000000000e+00 -1.7065624291955462e+01 -3.7115116702086169e+01 -1.3225871253484158e+02 0 0 0
2069 83 1 0.0000000000000000e+00 -1.0134536119828235e+02 -1.5043008128624628e+01 -1.2564758192246887e+02 0 0 0
4451 179 3 0.0000000000000000e+00 -9.2249175193124302e+01 -1.4597728162794091e+01 -1.3126750357039626e+02 0 0 0
4452 179 4 0.0000000000000000e+00 -8.9862807989624656e+01 -2.2994924034865246e+01 -1.2630337758921293e+02 0 0 0
4482 180 3 0.0000000000000000e+00 -6.7378420926886974e+01 -1.4593951046136747e+01 -1.3086727386922064e+02 0 0 0
1052 43 2 0.0000000000000000e+00 -5.2591559919702888e+01 -1.7860708528791111e+01 -1.3603433221521394e+02 0 0 0
2248 90 2 0.0000000000000000e+00 -4.6239500776438156e+01 -2.3719015608639488e+01 -1.2464552545202399e+02 0 0 0
1051 43 1 0.0000000000000000e+00 -5.6986917768230960e+01 -1.8215188064749420e+01 -1.2717976918734361e+02 0 0 0
1053 43 2 0.0000000000000000e+00 -4.2825343069533545e+01 -1.9162991828984204e+01 -1.3563432170195512e+02 0 0 0
1054 43 2 0.0000000000000000e+00 -3.3252944058582628e+01 -1.8310189224752673e+01 -1.3517503129454482e+02 0 0 0
4488 180 3 0.0000000000000000e+00 -3.4912927703645543e+01 -1.0953112557399958e+01 -1.2372045032966710e+02 0 0 0
2247 90 2 0.0000000000000000e+00 -3.6394874040613985e+01 -2.2738894897059733e+01 -1.2249827473433389e+02 0 0 0
3406 137 4 0.0000000000000000e+00 -1.8654119159671264e+01 -1.9662035357524001e+01 -1.2850979389936992e+02 0 0 0
2068 83 2 0.0000000000000000e+00 -9.9857969118062726e+01 -7.1635489204359510e+00 -1.3129456234897589e+02 0 0 0
2067 83 2 0.0000000000000000e+00 -9.1028274553922657e+01 -2.1100839511372875e+00 -1.2813224504640615e+02 0 0 0
4480 180 4 0.0000000000000000e+00 -6.7991268586713318e+01 -3.0072739949783376e+00 -1.3183825924012154e+02 0 0 0
4479 180 4 0.0000000000000000e+00 -6.5918891707451536e+01 1.4726807947840272e+00 -1.2308751462000428e+02 0 0 0
4490 180 4 0.0000000000000000e+00 -4.4242998906208129e+01 8.3165230414956870e-01 -1.3577455971218171e+02 0 0 0
4489 180 4 0.0000000000000000e+00 -3.9903353930829681e+01 -7.0004234888408092e+00 -1.3116958057793846e+02 0 0 0
2997 120 4 0.0000000000000000e+00 -2.3915582442489718e+01 -8.8694278280954588e+00 -1.2481120012053367e+02 0 0 0
2998 120 4 0.0000000000000000e+00 -2.5323593653900943e+01 -5.0421868907795515e+00 -1.3409678157235186e+02 0 0 0
2229 90 2 0.0000000000000000e+00 -9.2682462657340750e+01 1.7649180343678488e+01 -1.2622327262834014e+02 0 0 0
2018 81 2 0.0000000000000000e+00 -5.9661796772327193e+01 4.9562759088854875e+00 -1.3324662319294094e+02 0 0 0
2017 81 2 0.0000000000000000e+00 -5.7876203423608729e+01 7.8576038190974904e+00 -1.2352629364287408e+02 0 0 0
4491 180 4 0.0000000000000000e+00 -4.0231548204965016e+01 1.0162342227790100e+01 -1.3270053064262692e+02 0 0 0
2023 81 2 0.0000000000000000e+00 -2.5022437792719149e+01 6.4611093150855234e+00 -1.3241980011820760e+02 0 0 0
2460 99 2 0.0000000000000000e+00 -2.0159842158607926e+01 1.0087966492049299e+01 -1.2401781847279435e+02 0 0 0
1848 74 2 0.0000000000000000e+00 -2.3642798762414792e+01 -9.3978646023831516e+01 -1.1051683435223543e+02 0 0 0
4778 192 4 0.0000000000000000e+00 -2.2310684930326417e+01 -8.2155316867730761e+01 -1.1736144420524677e+02 0 0 0
4777 192 4 0.0000000000000000e+00 -2.2330181830265381e+01 -9.1565478381129992e+01 -1.2224602934837687e+02 0 0 0
3062 123 4 0.0000000000000000e+00 -2.7335542156131954e+01 -6.8431472221998987e+01 -1.1458769270196167e+02 0 0 0
3061 123 4 0.0000000000000000e+00 -3.1127329715619020e+01 -6.2395246257903793e+01 -1.2211170495521367e+02 0 0 0
3063 123 3 0.0000000000000000e+00 -2.1145899932750460e+01 -6.1228396916097367e+01 -1.1063445884223218e+02 0 0 0
1977 80 2 0.0000000000000000e+00 -7.0501806747588986e+01 -4.0674909804204098e+01 -1.1199248408716315e+02 0 0 0
4459 179 4 0.0000000000000000e+00 -5.9353755624170731e+01 -4.0566555875160084e+01 -1.1701888799540740e+02 0 0 0
4460 179 4 0.0000000000000000e+00 -4.9812460816347276e+01 -4.2709929466164553e+01 -1.1888018801796549e+02 0 0 0
4453 179 4 0.0000000000000000e+00 -9.1000355165852866e+01 -2.9540133175611068e+01 -1.1868189100658365e+02 0 0 0
4454 179 4 0.0000000000000000e+00 -8.7759479987866413e+01 -2.8226432287900316e+01 -1.0902239910445279e+02 0 0 0
1976 80 1 0.0000000000000000e+00 -7.0822536884020693e+01 -3.0618967375377323e+01 -1.1345762573137259e+02 0 0 0
1830 74 2 0.0000000000000000e+00 -5.2062270659602021e+01 -3.2010892953661454e+01 -1.1017302613113191e+02 0 0 0
1829 74 2 0.0000000000000000e+00 -4.4286169770492535e+01 -3.1086402922246663e+01 -1.1753426012793838e+02 0 0 0
1828 74 2 0.0000000000000000e+00 -3.4071528001776116e+01 -3.2241549264167190e+01 -1.1668177504442599e+02 0 0 0
2246 90 2 0.0000000000000000e+00 -2.7182406639027192e+01 -2.4465989864815185e+01 -1.2071717495885028e+02 0 0 0
1827 74 2 0.0000000000000000e+00 -2.5014573782270503e+01 -3.2789641988629860e+01 -1.1197559232218001e+02 0 0 0
2070 83 2 0.0000000000000000e+00 -9.9182473171093918e+01 -1.9462211641330967e+01 -1.1725972850547339e+02 0 0 0
2071 83 2 0.0000000000000000e+00 -9.2908640498925308e+01 -1.9745515561955617e+01 -1.0951335280317929e+02 0 0 0
2064 83 2 0.0000000000000000e+00 -7.7798475231544828e+01 -1.4153270911771532e+01 -1.1644587129706949e+02 0 0 0
2063 83 1 0.0000000000000000e+00 -7.4268715161461756e+01 -1.8590754653781236e+01 -1.0867982706890010e+02 0 0 0
3627 146 4 0.0000000000000000e+00 -6.9711272664706584e+01 -2.1396366033437779e+01 -1.1953089797316667e+02 0 0 0
3628 146 4 0.0000000000000000e+00 -6.3310203681225666e+01 -1.6796016514708796e+01 -1.1284148923606574e+02 0 0 0
3629 146 4 0.0000000000000000e+00 -5.4884456215648441e+01 -1.9500395372423796e+01 -1.0827849749215490e+02 0 0 0
4487 180 4 0.0000000000000000e+00 -3.6489699127036147e+01 -1.3406671224837662e+01 -1.1430611169406343e+02 0 0 0
2996 120 4 0.0000000000000000e+00 -2.6400182679073900e+01 -1.0566909002595333e+01 -1.1503244706890186e+02 0 0 0
2066 83 2 0.0000000000000000e+00 -8.4604955677754504e+01 1.5478346779036196e+00 -1.2102753613210403e+02 0 0 0
2065 83 2 0.0000000000000000e+00 -7.7622230324255867e+01 -6.0931271595577892e+00 -1.2232872672000344e+02 0 0 0
4477 180 4 0.0000000000000000e+00 -7.8376453300337459e+01 -4.3753887465215797e+00 -1.1260263376850945e+02 0 0 0
4483 180 4 0.0000000000000000e+00 -6.5335156467142099e+01 -9.8274404517208538e+00 -1.2197004420933085e+02 0 0 0
4478 180 4 0.0000000000000000e+00 -6.9006851346743076e+01 1.0060666994966236e-01 -1.1374796062804107e+02 0 0 0
4484 180 4 0.0000000000000000e+00 -5.9045788979647483e+01 -5.4051758521496556e+00 -1.1653129858107519e+02 0 0 0
2452 99 2 0.0000000000000000e+00 -5.0215606306885213e+01 1.4004349629625141e+00 -1.2032429344029264e+02 0 0 0
4485 180 4 0.0000000000000000e+00 -5.1964947255696224e+01 -9.7154869260119945e+00 -1.1034996430310127e+02 0 0 0
2451 99 1 0.0000000000000000e+00 -4.3150096056165701e+01 -5.3212570315640138e+00 -1.1922284195734032e+02 0 0 0
3424 137 4 0.0000000000000000e+00 -3.7511340111761342e+01 -1.2480030716857513e+00 -1.1046438596833319e+02 0 0 0
3180 128 4 0.0000000000000000e+00 -2.0832199130228688e+01 -4.3723330750611317e-01 -1.1717549411619669e+02 0 0 0
3179 128 4 0.0000000000000000e+00 -2.6486583264378623e+01 -8.2343797775064254e-01 -1.0912052558203386e+02 0 0 0
2227 90 2 0.0000000000000000e+00 -9.1165773551661900e+01 1.1606497659697537e+01 -1.0979828676184890e+02 0 0 0
2228 90 2 0.0000000000000000e+00 -8.6734276416965912e+01 1.6817716937226617e+01 -1.1798340364349217e+02 0 0 0
2015 81 2 0.0000000000000000e+00 -7.3469711622715096e+01 1.0867896526625080e+01 -1.1346144729118498e+02 0 0 0
2016 81 2 0.0000000000000000e+00 -6.5618445911667663e+01 1.1703113181908657e+01 -1.1922439037015999e+02 0 0 0
2453 99 2 0.0000000000000000e+00 -5.8069955820044107e+01 5.5646081076104599e+00 -1.1419312808125662e+02 0 0 0
2454 99 2 0.0000000000000000e+00 -6.0642388228682215e+01 1.3472795222312294e+01 -1.0847267740844546e+02 0 0 0
3425 137 3 0.0000000000000000e+00 -4.5603261804610362e+01 4.0985825004616645e+00 -1.0920379675101182e+02 0 0 0
2457 99 1 0.0000000000000000e+00 -4.8669545901663362e+01 1.0658038209575505e+01 -1.1752695971266128e+02 0 0 0
2458 99 2 0.0000000000000000e+00 -3.8788306863897482e+01 1.1001313556545613e+01 -1.1991360930908903e+02 0 0 0
3423 137 4 0.0000000000000000e+00 -3.5298507497656821e+01 8.4695870598938843e+00 -1.0908143717265509e+02 0 0 0
3422 137 4 0.0000000000000000e+00 -4.0722951886862376e+01 1.6743273151185392e+01 -1.0864175624507574e+02 0 0 0
2459 99 2 0.0000000000000000e+00 -2.9650931149903322e+01 7.8490652769158551e+00 -1.2205225663335786e+02 0 0 0
2392 96 2 0.0000000000000000e+00 -3.9567394000143622e+01 -1.2167801082756344e+02 -1.0030496511158525e+02 0 0 0
4151 167 3 0.0000000000000000e+00 -3.2684685965883347e+01 -1.1000122660013301e+02 -1.0345438588047224e+02 0 0 0
1845 74 2 0.0000000000000000e+00 -3.3907227326650961e+01 -1.0051625955357329e+02 -9.8823161405376069e+01 0 0 0
1844 74 1 0.0000000000000000e+00 -2.4524221238076635e+01 -1.0459247426827339e+02 -9.8406673026710948e+01 0 0 0
1843 74 2 0.0000000000000000e+00 -1.9140428862192643e+01 -9.5827225736425731e+01 -1.0022936621192783e+02 0 0 0
1846 74 2 0.0000000000000000e+00 -3.9599261422210404e+01 -9.2617218242534236e+01 -9.9418873496043972e+01 0 0 0
1847 74 2 0.0000000000000000e+00 -3.1861657649169896e+01 -9.0010490322105611e+01 -1.0612418051602187e+02 0 0 0
2175 87 1 0.0000000000000000e+00 -1.1435658625225241e+02 -7.5641841814506890e+01 -9.7581620899443848e+01 0 0 0
4000 160 3 0.0000000000000000e+00 -1.0655565415927191e+02 -7.2425417972782881e+01 -1.0536862112071809e+02 0 0 0
2174 87 2 0.0000000000000000e+00 -1.0505133926858801e+02 -8.0626808391611945e+01 -9.6687092492407430e+01 0 0 0
2173 87 2 0.0000000000000000e+00 -9.6098565144551515e+01 -7.7649114080742393e+01 -9.9936054421053740e+01 0 0 0
2172 87 2 0.0000000000000000e+00 -8.9258796931422182e+01 -7.3413564408998624e+01 -1.0641832245821604e+02 0 0 0
2171 87 2 0.0000000000000000e+00 -8.6735073931816800e+01 -6.6931144506127978e+01 -9.9170761914620030e+01 0 0 0
1663 67 1 0.0000000000000000e+00 -5.2868659846353928e+01 -7.9590728841296851e+01 -1.0102969522178606e+02 0 0 0
1664 67 2 0.0000000000000000e+00 -4.2975608958885829e+01 -7.5877723856829888e+01 -9.9825148545641810e+01 0 0 0
1166 47 2 0.0000000000000000e+00 -2.3350935386531443e+01 -8.0136151260650720e+01 -9.5281469649023705e+01 0 0 0
3999 160 4 0.0000000000000000e+00 -1.0514804297548238e+02 -6.5795556078992462e+01 -9.7774054239852632e+01 0 0 0
2170 87 2 0.0000000000000000e+00 -8.7054764019734321e+01 -5.7424461342204715e+01 -9.7034245112102198e+01 0 0 0
3068 123 4 0.0000000000000000e+00 -4.5066856254166375e+01 -6.0650448009367189e+01 -9.9211955461916475e+01 0 0 0
3067 123 4 0.0000000000000000e+00 -3.8568390438015470e+01 -5.3455089826078641e+01 -9.8412347147018977e+01 0 0 0
275 11 1 0.0000000000000000e+00 -2.4694948671284322e+01 -6.0381074512189109e+01 -1.0012674895040314e+02 0 0 0
3160 127 4 0.0000000000000000e+00 -1.0112257272494942e+02 -4.1998346942107382e+01 -1.0087436637263124e+02 0 0 0
1978 80 2 0.0000000000000000e+00 -7.0103770556711225e+01 -4.5564944756313125e+01 -1.0326433281332750e+02 0 0 0
1979 80 2 0.0000000000000000e+00 -6.3201482974850784e+01 -4.9472896904671337e+01 -9.7026914742220839e+01 0 0 0
4458 179 4 0.0000000000000000e+00 -6.2158731640770540e+01 -3.9407859249373544e+01 -1.0753617974172981e+02 0 0 0
1834 74 2 0.0000000000000000e+00 -4.0263344856384563e+01 -4.0211882213326639e+01 -1.0747815368448109e+02 0 0 0
3066 123 4 0.0000000000000000e+00 -3.4079743597611646e+01 -4.4753057744541351e+01 -9.9289094871729233e+01 0 0 0
3064 123 4 0.0000000000000000e+00 -2.0199548062296447e+01 -5.2134996852727454e+01 -1.0618577561105501e+02 0 0 0
3065 123 4 0.0000000000000000e+00 -2.6846386580186351e+01 -4.5146248751902256e+01 -1.0585977501388911e+02 0 0 0
1837 74 2 0.0000000000000000e+00 -1.9591960616049846e+01 -4.2725043226998174e+01 -9.4676359820608894e+01 0 0 0
3161 127 4 0.0000000000000000e+00 -9.5204274517767374e+01 -3.3919239973885475e+01 -9.9756342669662132e+01 0 0 0
4455 179 4 0.0000000000000000e+00 -7.9010358920005913e+01 -2.9756068276594103e+01 -1.0321015383506192e+02 0 0 0
4456 179 4 0.0000000000000000e+00 -7.1624711880835790e+01 -3.1343211954827940e+01 -9.6818157978975279e+01 0 0 0
4457 179 3 0.0000000000000000e+00 -6.3332165611118270e+01 -3.6827070093690217e+01 -9.8520175628934595e+01 0 0 0
1831 74 2 0.0000000000000000e+00 -5.9048148676556522e+01 -2.9018167257382348e+01 -1.0411864374971645e+02 0 0 0
1833 74 2 0.0000000000000000e+00 -4.7014725910726959e+01 -3.7226425912672624e+01 -1.0093938129472677e+02 0 0 0
1832 74 1 0.0000000000000000e+00 -5.4015908894148986e+01 -3.1846201452242543e+01 -9.6305901833549385e+01 0 0 0
1835 74 2 0.0000000000000000e+00 -3.2140374083416354e+01 -3.4422467015843338e+01 -1.0512747395474055e+02 0 0 0
577 24 2 0.0000000000000000e+00 -3.4969479117972966e+01 -2.8197593092646727e+01 -9.8373325004779147e+01 0 0 0
1826 74 1 0.0000000000000000e+00 -1.8931947395882133e+01 -3.7214964164370059e+01 -1.0505920914947104e+02 0 0 0
1836 74 2 0.0000000000000000e+00 -2.7137239001101150e+01 -3.6384143760909097e+01 -9.6652499033944935e+01 0 0 0
2072 83 2 0.0000000000000000e+00 -8.5592876104641547e+01 -1.6867721844656145e+01 -1.0266549842658377e+02 0 0 0
2711 109 4 0.0000000000000000e+00 -7.4338695824515341e+01 -1.2391620417374241e+01 -9.9410491997352253e+01 0 0 0
2062 83 2 0.0000000000000000e+00 -7.2812515370290654e+01 -2.2105572439745355e+01 -9.9128222142927441e+01 0 0 0
3630 146 4 0.0000000000000000e+00 -4.7840210472756311e+01 -1.8656275717723222e+01 -1.0064925306394795e+02 0 0 0
576 24 1 0.0000000000000000e+00 -3.6263178342844711e+01 -2.3239876312211099e+01 -1.0718427952426819e+02 0 0 0
4486 180 4 0.0000000000000000e+00 -4.2702627732417085e+01 -1.1126225126083433e+01 -1.0684213097828274e+02 0 0 0
2994 120 3 0.0000000000000000e+00 -3.3688249755987414e+01 -1.1899837804858434e+01 -9.8890577655512587e+01 0 0 0
2163 87 1 0.0000000000000000e+00 -3.8846564366097923e+01 -2.0153324384170823e+01 -9.4524338389226713e+01 0 0 0
3176 128 3 0.0000000000000000e+00 -2.5904813871843306e+01 -2.3079884773960703e+01 -1.0298368895611530e+02 0 0 0
2995 120 4 0.0000000000000000e+00 -2.8539920852346821e+01 -1.4623635924003107e+01 -1.0680165816064395e+02 0 0 0
3177 128 4 0.0000000000000000e+00 -1.8378361001263873e+01 -1.6693877633754735e+01 -1.0071949489996612e+02 0 0 0
2011 81 2 0.0000000000000000e+00 -1.0363633143964640e+02 3.5444441167762117e+00 -9.5798111149248683e+01 0 0 0
4476 180 3 0.0000000000000000e+00 -8.7009564790774334e+01 -4.9269499779144672e+00 -1.0712960423473338e+02 0 0 0
2012 81 2 0.0000000000000000e+00 -9.5133705352611528e+01 -3.5571783567971582e-01 -9.9541033613446857e+01 0 0 0
4522 181 4 0.0000000000000000e+00 -6.0538863082658480e+01 -1.9885677257592691e+00 -9.5623676579955713e+01 0 0 0
4521 181 4 0.0000000000000000e+00 -7.1066671144056002e+01 -2.9008713686692250e-01 -9.6641388649230379e+01 0 0 0
4523 181 4 0.0000000000000000e+00 -5.3653316770217948e+01 -8.0496701643160353e+00 -1.0001716080656722e+02 0 0 0
4524 181 4 0.0000000000000000e+00 -4.5147737426232268e+01 -2.5119044438172469e+00 -9.9701568802960622e+01 0 0 0
2993 120 4 0.0000000000000000e+00 -3.4930914726877752e+01 -2.0199426942863923e+00 -9.9507169592876949e+01 0 0 0
3178 128 4 0.0000000000000000e+00 -2.1770674065969882e+01 -7.2054499104123035e+00 -1.0203334706085427e+02 0 0 0
4271 171 4 0.0000000000000000e+00 -2.0378701514071185e+01 2.9172078561376353e+00 -9.4926281966183822e+01 0 0 0
2010 81 2 0.0000000000000000e+00 -1.1254028403284150e+02 7.8864793041693062e+00 -9.8791357752865906e+01 0 0 0
2009 81 2 0.0000000000000000e+00 -1.1274457602795765e+02 1.7175478436266342e+01 -1.0394191948446661e+02 0 0 0
2013 81 1 0.0000000000000000e+00 -8.6587996330109434e+01 5.0265769122774859e+00 -1.0224562404015322e+02 0 0 0
2226 90 1 0.0000000000000000e+00 -9.6381962222998368e+01 1.0552537663778892e+01 -1.0104154410049227e+02 0 0 0
1421 57 2 0.0000000000000000e+00 -8.8447355317387547e+01 1.4488265285563385e+01 -9.4598620557919403e+01 0 0 0
2014 81 2 0.0000000000000000e+00 -7.8604219173255629e+01 4.1250394888328774e+00 -1.0805113984333728e+02 0 0 0
3350 134 3 0.0000000000000000e+00 -6.7058766894267862e+01 1.4178882843168530e+01 -9.9380091136505314e+01 0 0 0
2456 99 2 0.0000000000000000e+00 -4.9788090534230371e+01 1.3000405075923263e+01 -1.0712226477652945e+02 0 0 0
3915 157 4 0.0000000000000000e+00 -4.6061144235510227e+01 1.1998716008404235e+01 -9.7254257155864991e+01 0 0 0
3914 157 4 0.0000000000000000e+00 -3.7283403253220939e+01 1.7194577700058353e+01 -9.9001988647308195e+01 0 0 0
2992 120 4 0.0000000000000000e+00 -3.5267122898014378e+01 7.9168754013233054e+00 -9.6707629616774724e+01 0 0 0
4272 171 4 0.0000000000000000e+00 -2.5064498200000507e+01 1.1452149536285507e+01 -9.5654467579007175e+01 0 0 0
4273 171 4 0.0000000000000000e+00 -1.7943394820738956e+01 1.4238587816428382e+01 -1.0111548142870946e+02 0 0 0
2391 96 2 0.0000000000000000e+00 -4.6079897589212074e+01 -1.2494877024765373e+02 -9.3208748930273813e+01 0 0 0
2390 96 2 0.0000000000000000e+00 -4.8197566963801428e+01 -1.2251240751477894e+02 -8.2724076768981007e+01 0 0 0
3175 127 3 0.0000000000000000e+00 -5.6066404203692883e+01 -1.1294437457379829e+02 -8.5311201792798556e+01 0 0 0
2394 96 1 0.0000000000000000e+00 -3.2191920563919219e+01 -1.2248550851215985e+02 -8.3523620624146872e+01 0 0 0
4152 167 4 0.0000000000000000e+00 -3.6476366399010907e+01 -1.1167466970800936e+02 -9.3809912821549460e+01 0 0 0
4153 167 4 0.0000000000000000e+00 -4.1153550048968484e+01 -1.1325248626729456e+02 -8.5299788380438699e+01 0 0 0
2393 96 2 0.0000000000000000e+00 -3.1647474086692942e+01 -1.2202603524402592e+02 -9.3402552375718827e+01 0 0 0
260 11 2 0.0000000000000000e+00 -2.5004751510802357e+01 -1.0926369003760968e+02 -8.8991645798522654e+01 0 0 0
259 11 2 0.0000000000000000e+00 -2.0847438936027107e+01 -1.0928678770754848e+02 -8.0075382275162070e+01 0 0 0
3173 127 4 0.0000000000000000e+00 -7.3564364167264074e+01 -1.0237169381051741e+02 -8.3589418002006269e+01 0 0 0
3174 127 4 0.0000000000000000e+00 -6.5096739432858655e+01 -1.0861377125833079e+02 -8.3221944222227165e+01 0 0 0
261 11 2 0.0000000000000000e+00 -3.1781102839711362e+01 -1.0180319267545183e+02 -8.8310672567694965e+01 0 0 0
3171 127 4 0.0000000000000000e+00 -8.5918566466147894e+01 -8.6688310905721153e+01 -8.0149926313193987e+01 0 0 0
262 11 2 0.0000000000000000e+00 -3.7439717275967766e+01 -9.3779267745807360e+01 -8.6339785413438889e+01 0 0 0
263 11 1 0.0000000000000000e+00 -3.5282110807403228e+01 -8.4357292663560656e+01 -8.2935819417111688e+01 0 0 0
265 11 2 0.0000000000000000e+00 -1.9382174730413961e+01 -9.4747750347228845e+01 -8.6826956332014561e+01 0 0 0
264 11 2 0.0000000000000000e+00 -2.6646707596060651e+01 -8.7663705952233386e+01 -8.5606610392017274e+01 0 0 0
3170 127 4 0.0000000000000000e+00 -8.5701166709550932e+01 -7.6858399417318623e+01 -8.1456041072280001e+01 0 0 0
3169 127 3 0.0000000000000000e+00 -8.0427605386623355e+01 -7.0060991431218213e+01 -8.6641622917271036e+01 0 0 0
584 24 2 0.0000000000000000e+00 -6.9160795598002949e+01 -6.7982816348519577e+01 -8.7607036650702611e+01 0 0 0
585 24 2 0.0000000000000000e+00 -6.5363231365828952e+01 -7.5409127611999011e+01 -8.2793173252444660e+01 0 0 0
1662 67 2 0.0000000000000000e+00 -5.9086767135735151e+01 -7.6358161638207605e+01 -9.3266376616055126e+01 0 0 0
1661 67 2 0.0000000000000000e+00 -5.6269451505384041e+01 -8.0483182072737335e+01 -8.4606500140857420e+01 0 0 0
3070 123 4 0.0000000000000000e+00 -4.5534552343362058e+01 -7.2817134254908538e+01 -8.5598785741441120e+01 0 0 0
1665 67 2 0.0000000000000000e+00 -3.5164264559031622e+01 -7.3898856962924341e+01 -9.3711158930524050e+01 0 0 0
1666 67 2 0.0000000000000000e+00 -2.9218097670828492e+01 -7.7509489329664348e+01 -8.7486269774170026e+01 0 0 0
3084 124 4 0.0000000000000000e+00 -1.9513314600031219e+01 -7.8046159058647604e+01 -8.3711538442554698e+01 0 0 0
1167 47 2 0.0000000000000000e+00 -2.4067152203020537e+01 -7.0552495108838698e+01 -9.1430654537877913e+01 0 0 0
3997 160 4 0.0000000000000000e+00 -1.1131010879319339e+02 -5.4800669559176256e+01 -8.1741917438352615e+01 0 0 0
3998 160 4 0.0000000000000000e+00 -1.0639006666934543e+02 -5.8496060418641918e+01 -9.0272877028333852e+01 0 0 0
3168 127 4 0.0000000000000000e+00 -7.4814945598508658e+01 -6.1148295799840682e+01 -8.5360598004410377e+01 0 0 0
583 24 2 0.0000000000000000e+00 -6.6358501473239713e+01 -5.8798308644508204e+01 -9.0506256741166666e+01 0 0 0
3069 123 3 0.0000000000000000e+00 -4.8810716633657108e+01 -6.6202323276949087e+01 -9.2423119221591634e+01 0 0 0
582 24 1 0.0000000000000000e+00 -5.6300109478861373e+01 -5.8603066651899645e+01 -9.2611073135093918e+01 0 0 0
581 24 2 0.0000000000000000e+00 -4.8020723990945491e+01 -5.3437753896056329e+01 -8.9117536687129189e+01 0 0 0
1168 47 2 0.0000000000000000e+00 -2.7070250706866066e+01 -6.1113759596852866e+01 -8.9571107076929351e+01 0 0 0
3159 127 4 0.0000000000000000e+00 -9.8029883430658003e+01 -3.9066098254189505e+01 -9.1159193005471948e+01 0 0 0
3158 127 4 0.0000000000000000e+00 -9.1518796756564257e+01 -4.2776166699705705e+01 -8.4406171833667656e+01 0 0 0
2169 87 1 0.0000000000000000e+00 -8.5570844735276594e+01 -4.8284706696151602e+01 -9.2979480405593677e+01 0 0 0
2168 87 2 0.0000000000000000e+00 -7.6923324944633919e+01 -4.3171388844388090e+01 -9.0731354780259622e+01 0 0 0
3157 127 3 0.0000000000000000e+00 -8.5129418761230212e+01 -5.0015871194443967e+01 -8.2237747637735552e+01 0 0 0
1980 80 2 0.0000000000000000e+00 -5.9022958224881137e+01 -4.3774219815307546e+01 -8.9308819994584397e+01 0 0 0
2720 109 4 0.0000000000000000e+00 -3.6439072464190190e+01 -5.1168184887229941e+01 -8.1173137833217297e+01 0 0 0
580 24 2 0.0000000000000000e+00 -3.9359784943016891e+01 -4.8101031153118697e+01 -9.0096312655493179e+01 0 0 0
1171 47 2 0.0000000000000000e+00 -3.1649474201625218e+01 -4.1036355147769612e+01 -8.0007200748043147e+01 0 0 0
579 24 2 0.0000000000000000e+00 -4.0810146003787708e+01 -4.0413843722243634e+01 -8.3314466227383036e+01 0 0 0
1170 47 2 0.0000000000000000e+00 -3.1188523602133856e+01 -4.1490779057966535e+01 -8.9641006057648880e+01 0 0 0
1169 47 1 0.0000000000000000e+00 -3.0330344832576607e+01 -5.1546655748484611e+01 -9.1672811196008169e+01 0 0 0
2721 109 4 0.0000000000000000e+00 -2.6638716119282982e+01 -5.0557883386690804e+01 -8.0804116719882202e+01 0 0 0
3162 127 4 0.0000000000000000e+00 -8.7770319896315002e+01 -3.0984019390808864e+01 -9.3570141121259624e+01 0 0 0
2075 83 1 0.0000000000000000e+00 -9.1268777711288337e+01 -3.0985141499945708e+01 -8.3437447817680834e+01 0 0 0
2167 87 2 0.0000000000000000e+00 -7.2201606833516507e+01 -3.6689048042957367e+01 -8.4904378266092067e+01 0 0 0
3163 127 3 0.0000000000000000e+00 -8.1018409406057827e+01 -2.9155352852639641e+01 -8.5886945828809147e+01 0 0 0
2166 87 2 0.0000000000000000e+00 -6.5290031255142026e+01 -2.9262640752707231e+01 -8.2316803093458034e+01 0 0 0
2165 87 2 0.0000000000000000e+00 -5.6274375762848408e+01 -2.6196611909473997e+01 -8.5768312606440517e+01 0 0 0
578 24 2 0.0000000000000000e+00 -3.8556113379595864e+01 -3.5189647579945181e+01 -9.1986571711421618e+01 0 0 0
2074 83 2 0.0000000000000000e+00 -8.9049923223301022e+01 -2.0890363099216781e+01 -8.4391216778049312e+01 0 0 0
2710 109 4 0.0000000000000000e+00 -8.0459385580063397e+01 -1.1091071898666348e+01 -9.1657013248701958e+01 0 0 0
2073 83 2 0.0000000000000000e+00 -8.3810964933799795e+01 -2.2034929487038148e+01 -9.3895155334080314e+01 0 0 0