LAMMPS data file via write_data, version 5 Jun 2019, timestep = 400000000

5000 atoms
4 atom types
5207 bonds
3 bond types
4600 angles
2 angle types

-5.0000000000000000e+02 5.0000000000000000e+02 xlo xhi
-5.0000000000000000e+02 5.0000000000000000e+02 ylo yhi
-5.0000000000000000e+02 5.0000000000000000e+02 zlo zhi

Masses

1 1000
2 1000
3 1000
4 1000

Pair Coeffs # lj/cut

1 0.18 10
2 0.18 10
3 0.18 10
4 0.18 10

Bond Coeffs # harmonic

1 3 10
2 3 10
3 1.8 11.22

Angle Coeffs # cosine

1 2
2 2

Atoms # full

3159 127 4 0.0000000000000000e+00 -1.4295337273347736e+01 -5.8090430508252766e+01 -2.0419673911663696e+02 0 0 0
3160 127 4 0.0000000000000000e+00 -6.0245905045299226e+00 -5.3198663796196797e+01 -2.0522008073091678e+02 0 0 0
3158 127 4 0.0000000000000000e+00 -1.5497878886863203e+01 -6.0837440357447562e+01 -1.9492615088125987e+02 0 0 0
3157 127 3 0.0000000000000000e+00 -1.4787116510354641e+01 -6.5166611365559859e+01 -1.8568873546002311e+02 0 0 0
900 36 1 0.0000000000000000e+00 -2.2444048809819769e+01 -5.7021091232236344e+01 -1.8608951904186563e+02 0 0 0
899 36 2 0.0000000000000000e+00 -1.7496984386652755e+01 -4.8364399095181234e+01 -1.8509382577662882e+02 0 0 0
3156 127 4 0.0000000000000000e+00 -1.0696873547783044e+01 -6.2515231740093427e+01 -1.7673177429401801e+02 0 0 0
898 36 2 0.0000000000000000e+00 -9.1862457796905179e+00 -4.9059109657969309e+01 -1.7927433806654315e+02 0 0 0
3155 127 4 0.0000000000000000e+00 -3.5246235171329472e+00 -5.7695815431541511e+01 -1.7196069448320836e+02 0 0 0
2346 94 2 0.0000000000000000e+00 -4.8408159088396616e+01 -1.2014338207409135e+02 -1.6160408768096937e+02 0 0 0
2345 94 2 0.0000000000000000e+00 -4.4218581368107571e+01 -1.1052143804470391e+02 -1.6264985040008801e+02 0 0 0
2344 94 1 0.0000000000000000e+00 -3.8367890013093216e+01 -1.0248007789052897e+02 -1.6281190019015915e+02 0 0 0
4475 179 3 0.0000000000000000e+00 -4.6970026955144597e+01 -9.6497439353376137e+01 -1.5957973228744922e+02 0 0 0
2343 94 2 0.0000000000000000e+00 -3.2552460642534882e+01 -9.4439091147487574e+01 -1.6013900858772396e+02 0 0 0
844 34 1 0.0000000000000000e+00 -4.1828559773379190e+00 -9.4291654456718931e+01 -1.5721340813351549e+02 0 0 0
2339 94 2 0.0000000000000000e+00 -6.1831009618463042e+01 -7.5972001742251209e+01 -1.5805754840625451e+02 0 0 0
2340 94 2 0.0000000000000000e+00 -5.3151632947919275e+01 -8.0033323325790860e+01 -1.6017966344748282e+02 0 0 0
2341 94 2 0.0000000000000000e+00 -4.3718147749943704e+01 -7.8624825686038847e+01 -1.6121446121658144e+02 0 0 0
2342 94 2 0.0000000000000000e+00 -3.5642145099799592e+01 -8.5068194033389261e+01 -1.6126875461498770e+02 0 0 0
3175 127 3 0.0000000000000000e+00 -6.4020472336129330e+01 -6.2961520999951560e+01 -1.5980353864485835e+02 0 0 0
3154 127 4 0.0000000000000000e+00 -4.0563552073126532e+00 -6.0889929475251371e+01 -1.6253607145635439e+02 0 0 0
4872 195 4 0.0000000000000000e+00 -6.4258599890781326e+01 -1.4684452888911733e+02 -1.5166862893236444e+02 0 0 0
4870 195 4 0.0000000000000000e+00 -5.3098605145594149e+01 -1.5429486970063488e+02 -1.4500166826623467e+02 0 0 0
4871 195 4 0.0000000000000000e+00 -5.5561604486296545e+01 -1.5097193243467774e+02 -1.5430777493153465e+02 0 0 0
4874 195 4 0.0000000000000000e+00 -7.1242831870141103e+01 -1.2910654996297569e+02 -1.4480206520734922e+02 0 0 0
4873 195 4 0.0000000000000000e+00 -6.7407620505067456e+01 -1.3762825263228405e+02 -1.4871348352535080e+02 0 0 0
2348 94 2 0.0000000000000000e+00 -5.2102347567097240e+01 -1.3222995665054424e+02 -1.4859393150081155e+02 0 0 0
1726 70 1 0.0000000000000000e+00 -1.4991388611079017e+01 -1.4002370924263690e+02 -1.4368569217530037e+02 0 0 0
4875 195 3 0.0000000000000000e+00 -7.5160974022733996e+01 -1.2261295797388946e+02 -1.5129914433189845e+02 0 0 0
2347 94 2 0.0000000000000000e+00 -5.2520805156621684e+01 -1.2331896855221356e+02 -1.5257083025247380e+02 0 0 0
4814 193 4 0.0000000000000000e+00 -1.6108345350998988e+01 -1.2701145238899815e+02 -1.5034437149344646e+02 0 0 0
4815 193 4 0.0000000000000000e+00 -2.5115649558838616e+01 -1.2577379569437765e+02 -1.5401461432237249e+02 0 0 0
4816 193 4 0.0000000000000000e+00 -2.5180724869403800e+01 -1.1614897076314607e+02 -1.5494852715466038e+02 0 0 0
4817 193 4 0.0000000000000000e+00 -2.1162183955692051e+01 -1.0802039068101132e+02 -1.5265417231796113e+02 0 0 0
4818 193 4 0.0000000000000000e+00 -1.2839794307418437e+01 -1.0281147526631287e+02 -1.5023784126693849e+02 0 0 0
4474 179 4 0.0000000000000000e+00 -4.2209568982837979e+01 -9.4236280071001246e+01 -1.5157567540426322e+02 0 0 0
4473 179 4 0.0000000000000000e+00 -3.7159308459927800e+01 -8.7394411024853866e+01 -1.4669637161481381e+02 0 0 0
4819 193 3 0.0000000000000000e+00 -5.2581344420200891e+00 -9.6906424622265320e+01 -1.4669404405580269e+02 0 0 0
4806 193 4 0.0000000000000000e+00 -9.7445708554016903e+00 -7.7443077022801262e+01 -1.4650336472169440e+02 0 0 0
2326 94 1 0.0000000000000000e+00 -1.0423791246223325e+02 -6.9573143236081151e+01 -1.4711769870730080e+02 0 0 0
2327 94 2 0.0000000000000000e+00 -9.5107005183295513e+01 -6.5757514555508067e+01 -1.4973266385951507e+02 0 0 0
2328 94 2 0.0000000000000000e+00 -8.5531603505952148e+01 -6.4265711109429134e+01 -1.4660737200903586e+02 0 0 0
2336 94 2 0.0000000000000000e+00 -7.6369416487889097e+01 -6.0731044448384971e+01 -1.4576257305995355e+02 0 0 0
2338 94 1 0.0000000000000000e+00 -6.3129616890816429e+01 -6.9447999904249357e+01 -1.5068564229645114e+02 0 0 0
3174 127 4 0.0000000000000000e+00 -5.5439263796808198e+01 -5.9856269216297257e+01 -1.5663849202250805e+02 0 0 0
4466 179 4 0.0000000000000000e+00 -5.2643350775183919e+01 -7.0011543553168309e+01 -1.4321084070818154e+02 0 0 0
2335 94 2 0.0000000000000000e+00 -7.3154002774619372e+01 -5.2999252157134741e+01 -1.5066398389690266e+02 0 0 0
2334 94 2 0.0000000000000000e+00 -6.5668856663667142e+01 -4.6728084860324564e+01 -1.4651437665288461e+02 0 0 0
3173 127 4 0.0000000000000000e+00 -5.5254309928985087e+01 -5.4674263593693880e+01 -1.4807997054010266e+02 0 0 0
625 25 1 0.0000000000000000e+00 -1.4349089486280420e+01 -5.6935469055062782e+01 -1.4492884627300197e+02 0 0 0
2228 90 2 0.0000000000000000e+00 -3.4712389557321487e+01 -2.1398264874090205e+02 -1.3225122870436221e+02 0 0 0
2229 90 2 0.0000000000000000e+00 -2.6825594143960007e+01 -2.0889984404567272e+02 -1.3635347300971816e+02 0 0 0
2230 90 2 0.0000000000000000e+00 -2.0362123640089095e+01 -2.0356604798995812e+02 -1.3060509118261774e+02 0 0 0
2786 112 4 0.0000000000000000e+00 -1.1129934655103728e+01 -1.7568675121133745e+02 -1.3283540954582512e+02 0 0 0
2785 112 4 0.0000000000000000e+00 -6.8236343063702787e+00 -1.6688458941641011e+02 -1.3328684059010050e+02 0 0 0
4525 181 3 0.0000000000000000e+00 -1.0381458177994906e+01 -1.5735355202490473e+02 -1.3165026473333558e+02 0 0 0
2784 112 4 0.0000000000000000e+00 -2.7994074804076137e+00 -1.5776027050784427e+02 -1.3677149711105213e+02 0 0 0
4869 195 3 0.0000000000000000e+00 -4.6737430040385043e+01 -1.5098613358944257e+02 -1.3778071128110224e+02 0 0 0
2350 94 1 0.0000000000000000e+00 -4.6029624883321063e+01 -1.4048502870545121e+02 -1.3393573705426860e+02 0 0 0
2349 94 2 0.0000000000000000e+00 -5.1785392312812640e+01 -1.3971744766628763e+02 -1.4202591338808202e+02 0 0 0
1727 70 2 0.0000000000000000e+00 -1.9802003689711338e+01 -1.3224476390197032e+02 -1.4023336770289657e+02 0 0 0
4813 193 3 0.0000000000000000e+00 -1.1008734316960009e+01 -1.2899450469444534e+02 -1.4243819808844523e+02 0 0 0
1728 70 2 0.0000000000000000e+00 -2.1460102901229337e+01 -1.2213045051795999e+02 -1.3980162279703694e+02 0 0 0
4812 193 4 0.0000000000000000e+00 -1.1102946154547109e+01 -1.2222788644325840e+02 -1.3496229472214836e+02 0 0 0
4811 193 4 0.0000000000000000e+00 -4.0162456686738599e+00 -1.1498678955560443e+02 -1.3226367222955309e+02 0 0 0
1729 70 2 0.0000000000000000e+00 -2.3714488121567250e+01 -1.1412607142405795e+02 -1.3364317124697510e+02 0 0 0
1730 70 2 0.0000000000000000e+00 -1.7128798042287901e+01 -1.0825801855138421e+02 -1.3794246014532425e+02 0 0 0
4810 193 4 0.0000000000000000e+00 -4.4262196253017736e+00 -1.0524829810174796e+02 -1.3361018774168318e+02 0 0 0
1731 70 2 0.0000000000000000e+00 -1.2851549165279096e+01 -9.9216894067743169e+01 -1.3968266468758753e+02 0 0 0
1732 70 1 0.0000000000000000e+00 -5.5709313590776839e+00 -9.1238882122309846e+01 -1.3895171159105519e+02 0 0 0
4808 193 4 0.0000000000000000e+00 -1.3450459737803923e+01 -8.8351224553327071e+01 -1.3038605892853150e+02 0 0 0
4809 193 4 0.0000000000000000e+00 -6.9053057671402813e+00 -9.6370503781964601e+01 -1.3036073494976503e+02 0 0 0
3901 157 3 0.0000000000000000e+00 -8.0335551870371091e+01 -7.5717575921623535e+01 -1.3022567226970693e+02 0 0 0
4468 179 4 0.0000000000000000e+00 -5.8566517377250030e+01 -8.5742717601162042e+01 -1.3314773216262725e+02 0 0 0
4467 179 4 0.0000000000000000e+00 -5.3415079911312340e+01 -7.9735388845803726e+01 -1.3979771644762431e+02 0 0 0
4472 179 4 0.0000000000000000e+00 -3.8251226911683254e+01 -8.3413876774825056e+01 -1.3690303164534578e+02 0 0 0
4807 193 3 0.0000000000000000e+00 -1.2068743310575364e+01 -8.1421358027831886e+01 -1.3771875707557152e+02 0 0 0
2329 94 2 0.0000000000000000e+00 -8.0243675233488887e+01 -6.9517718408099583e+01 -1.4004999223859957e+02 0 0 0
2330 94 2 0.0000000000000000e+00 -7.4234346526359658e+01 -6.2873556213980358e+01 -1.3458135198113399e+02 0 0 0
2337 94 2 0.0000000000000000e+00 -6.7309106585558098e+01 -6.4573824170166333e+01 -1.4279790495990636e+02 0 0 0
4465 179 4 0.0000000000000000e+00 -5.7282440856294336e+01 -6.3141990597669022e+01 -1.3703619359072778e+02 0 0 0
2331 94 2 0.0000000000000000e+00 -6.7857572028459117e+01 -5.4967308287459971e+01 -1.3292460374345140e+02 0 0 0
4464 179 4 0.0000000000000000e+00 -5.8078189031015022e+01 -5.5501312950750844e+01 -1.3047900944257054e+02 0 0 0
3172 127 4 0.0000000000000000e+00 -5.8034320429055882e+01 -5.0393338274652251e+01 -1.3957124415722248e+02 0 0 0
1827 74 2 0.0000000000000000e+00 -3.1173686312917631e+01 -4.6357813687102933e+01 -1.3555675876057418e+02 0 0 0
3151 127 3 0.0000000000000000e+00 -3.8854760316344117e+00 -5.6832661201604395e+01 -1.4262889423987062e+02 0 0 0
624 25 2 0.0000000000000000e+00 -1.1676668330743029e+01 -5.0397358465073232e+01 -1.3827566417172176e+02 0 0 0
623 25 2 0.0000000000000000e+00 -6.7123058926557713e+00 -5.3150126360373811e+01 -1.3015524531413851e+02 0 0 0
2226 90 1 0.0000000000000000e+00 -4.9590369037287140e+01 -2.2252012459265242e+02 -1.2272853828362595e+02 0 0 0
2227 90 2 0.0000000000000000e+00 -4.0475824510462047e+01 -2.1763593330478972e+02 -1.2479668624970066e+02 0 0 0
2792 112 4 0.0000000000000000e+00 -4.6429967389125743e+01 -1.9706261548285624e+02 -1.2394919466708446e+02 0 0 0
2791 112 4 0.0000000000000000e+00 -3.9630702729938477e+01 -2.0301614334943591e+02 -1.2849413138442262e+02 0 0 0
2790 112 4 0.0000000000000000e+00 -3.0870648346749050e+01 -2.0477031106715995e+02 -1.2508825874661903e+02 0 0 0
2789 112 4 0.0000000000000000e+00 -2.3999266750607106e+01 -1.9785514160144635e+02 -1.2122801224619514e+02 0 0 0
2231 90 2 0.0000000000000000e+00 -1.1513913036755303e+01 -2.0205568735082292e+02 -1.2655130737265503e+02 0 0 0
2793 112 4 0.0000000000000000e+00 -3.9851815280317474e+01 -1.9096454107745816e+02 -1.2072116708364071e+02 0 0 0
2788 112 3 0.0000000000000000e+00 -1.7137898746875742e+01 -1.9072936581781079e+02 -1.2149116270945819e+02 0 0 0
2787 112 4 0.0000000000000000e+00 -1.3480273934762632e+01 -1.8442518055520736e+02 -1.2791438511917838e+02 0 0 0
2232 90 1 0.0000000000000000e+00 -6.8556041278648436e+00 -1.9400657075387258e+02 -1.2378002201262490e+02 0 0 0
351 15 1 0.0000000000000000e+00 -1.0978250301523634e+01 -1.6214343619479320e+02 -1.2140688033008122e+02 0 0 0
352 15 2 0.0000000000000000e+00 -6.4633201338288542e+00 -1.6893587983506777e+02 -1.1558159431773645e+02 0 0 0
4868 195 4 0.0000000000000000e+00 -4.6865636608119125e+01 -1.4943486464138945e+02 -1.2755367148153154e+02 0 0 0
4867 195 4 0.0000000000000000e+00 -4.1836714344690705e+01 -1.5083506783804830e+02 -1.1881375308181759e+02 0 0 0
4523 181 4 0.0000000000000000e+00 -1.9852678975659920e+01 -1.4311327195378115e+02 -1.2170211316834371e+02 0 0 0
4524 181 4 0.0000000000000000e+00 -1.4480147256866825e+01 -1.5024638531706290e+02 -1.2673398230074656e+02 0 0 0
4522 181 4 0.0000000000000000e+00 -2.5560841364085483e+01 -1.3737920400751199e+02 -1.1564803191984853e+02 0 0 0
2499 100 2 0.0000000000000000e+00 -4.2284724967502733e+01 -1.0139766453472220e+02 -1.1818168921353858e+02 0 0 0
2500 100 1 0.0000000000000000e+00 -4.6882861624654872e+01 -9.7743464490655072e+01 -1.2695437513191942e+02 0 0 0
4469 179 3 0.0000000000000000e+00 -5.5384932679623482e+01 -9.1391266623321940e+01 -1.2586617133070844e+02 0 0 0
4515 181 4 0.0000000000000000e+00 -1.8497901671995113e+01 -9.6393534921785246e+01 -1.1714904736938736e+02 0 0 0
1900 76 1 0.0000000000000000e+00 -8.5500794964212773e+01 -8.5720052125169119e+01 -1.2867661036837055e+02 0 0 0
3902 157 4 0.0000000000000000e+00 -8.6665259168047271e+01 -7.2924411645707522e+01 -1.2207605227429275e+02 0 0 0
1899 76 2 0.0000000000000000e+00 -7.8122950187893892e+01 -8.3678695572096373e+01 -1.2177671670443253e+02 0 0 0
4470 179 4 0.0000000000000000e+00 -4.6700997038050133e+01 -8.6457809176541332e+01 -1.2365038686379380e+02 0 0 0
4471 179 4 0.0000000000000000e+00 -3.8102837572073284e+01 -8.1225447865395495e+01 -1.2691900342847580e+02 0 0 0
1830 74 2 0.0000000000000000e+00 -1.8696011179094508e+01 -5.9442935091383774e+01 -1.1624515976397313e+02 0 0 0
945 38 2 0.0000000000000000e+00 -6.1914457193136627e+01 -5.2277671816544931e+01 -1.2121387842824670e+02 0 0 0
4463 179 3 0.0000000000000000e+00 -5.6707341610672664e+01 -4.5663955392474499e+01 -1.2844890630795734e+02 0 0 0
1828 74 2 0.0000000000000000e+00 -3.0413079444093178e+01 -5.2829677590739941e+01 -1.2800445146603889e+02 0 0 0
1829 74 2 0.0000000000000000e+00 -2.2108119044987902e+01 -5.7074717137671684e+01 -1.2504670430786688e+02 0 0 0
2794 112 3 0.0000000000000000e+00 -3.3740665584318059e+01 -1.8965867451181967e+02 -1.1286455829652276e+02 0 0 0
2795 112 4 0.0000000000000000e+00 -2.6825727757558745e+01 -1.9617281915673715e+02 -1.0955562782849526e+02 0 0 0
353 15 2 0.0000000000000000e+00 -4.3253505948666273e+00 -1.6826259151147985e+02 -1.0582852219618144e+02 0 0 0
4866 195 4 0.0000000000000000e+00 -4.5099546519540390e+01 -1.4789105644321816e+02 -1.0957641590315762e+02 0 0 0
1531 62 2 0.0000000000000000e+00 -7.8309884245877612e+01 -1.3465480632059925e+02 -1.0549536871539333e+02 0 0 0
1532 62 1 0.0000000000000000e+00 -6.9444098472596480e+01 -1.3913792233924565e+02 -1.0303412992277354e+02 0 0 0
1533 62 2 0.0000000000000000e+00 -5.9711876678042657e+01 -1.3974182274164053e+02 -1.0422947283376546e+02 0 0 0
4521 181 4 0.0000000000000000e+00 -2.8601876459632084e+01 -1.3177991694821191e+02 -1.0775500888325864e+02 0 0 0
1528 62 2 0.0000000000000000e+00 -1.0089799362560139e+02 -1.2448483664765214e+02 -1.0404263481702101e+02 0 0 0
2496 100 2 0.0000000000000000e+00 -4.7288775476088652e+01 -1.2006405079734928e+02 -1.0182561642384525e+02 0 0 0
4520 181 4 0.0000000000000000e+00 -3.6493850016461771e+01 -1.2587682937293965e+02 -1.0685011024663011e+02 0 0 0
4519 181 3 0.0000000000000000e+00 -3.1672502893344017e+01 -1.1802339284196626e+02 -1.0325837882018263e+02 0 0 0
3805 153 4 0.0000000000000000e+00 -4.8689211850040257e+00 -1.2149833054660685e+02 -1.0363105042001887e+02 0 0 0
4857 195 3 0.0000000000000000e+00 -9.8864654658159651e+01 -1.0348701824151054e+02 -1.0644589138511697e+02 0 0 0
4858 195 4 0.0000000000000000e+00 -8.9913307763812796e+01 -1.0806714813134212e+02 -1.0495580823765198e+02 0 0 0
4859 195 4 0.0000000000000000e+00 -8.0622960588381204e+01 -1.1221910288314203e+02 -1.0287248037533513e+02 0 0 0
2497 100 2 0.0000000000000000e+00 -4.9507795469515600e+01 -1.1252565566820937e+02 -1.0815978641271722e+02 0 0 0
2498 100 2 0.0000000000000000e+00 -4.1786916566438741e+01 -1.0613446198736776e+02 -1.0910863116545234e+02 0 0 0
4517 181 4 0.0000000000000000e+00 -3.3294920024827981e+01 -1.0125352829990716e+02 -1.0549725715712948e+02 0 0 0
4513 181 3 0.0000000000000000e+00 -1.2296824326831763e+01 -1.0379984589528796e+02 -1.0287209923033920e+02 0 0 0
4514 181 4 0.0000000000000000e+00 -1.4302906476764962e+01 -1.0400182077332768e+02 -1.1250682262470067e+02 0 0 0
1897 76 2 0.0000000000000000e+00 -7.2073195676047845e+01 -8.7367544906191100e+01 -1.0509861966890109e+02 0 0 0
275 11 1 0.0000000000000000e+00 -5.7013766923526248e+01 -9.9649551236346099e+01 -1.0208224383668656e+02 0 0 0
4516 181 4 0.0000000000000000e+00 -2.7907441579351485e+01 -9.7706347474055903e+01 -1.1328293556245069e+02 0 0 0
1835 74 2 0.0000000000000000e+00 -9.5700579250275286e+00 -8.8633022508152479e+01 -1.0401868076101593e+02 0 0 0
1836 74 2 0.0000000000000000e+00 -5.7638769071122047e+00 -8.7326643042943601e+01 -1.1300209600594003e+02 0 0 0
1898 76 2 0.0000000000000000e+00 -7.9142564293996188e+01 -8.3418814963411606e+01 -1.1154140471609983e+02 0 0 0
3916 157 4 0.0000000000000000e+00 -4.5053373821146515e+01 -7.7690551737402970e+01 -1.0222872562611030e+02 0 0 0
3903 157 4 0.0000000000000000e+00 -8.4354173271292737e+01 -6.6023698477595332e+01 -1.1534534958145359e+02 0 0 0
3904 157 4 0.0000000000000000e+00 -8.4002124593636367e+01 -5.9310478063787500e+01 -1.0821317736686443e+02 0 0 0
3913 157 3 0.0000000000000000e+00 -6.6940180394797736e+01 -6.4262209717229609e+01 -1.1365814819725071e+02 0 0 0
3914 157 4 0.0000000000000000e+00 -6.0204812867675301e+01 -7.0813402633986030e+01 -1.0936184178429960e+02 0 0 0
3915 157 4 0.0000000000000000e+00 -5.1871076070672004e+01 -6.9856215306284426e+01 -1.0357034189379638e+02 0 0 0
4562 183 4 0.0000000000000000e+00 -3.3311140281212246e+01 -6.0403259992056277e+01 -1.0404545842539237e+02 0 0 0
1831 74 2 0.0000000000000000e+00 -1.7872671789208468e+01 -6.0703719284160996e+01 -1.0575579615581084e+02 0 0 0
3912 157 4 0.0000000000000000e+00 -7.4762826222700554e+01 -5.7020406117745765e+01 -1.1343811081870412e+02 0 0 0
3911 157 4 0.0000000000000000e+00 -7.8837329942946752e+01 -4.7321724635851751e+01 -1.1335615507287301e+02 0 0 0
943 38 2 0.0000000000000000e+00 -7.0382952865414012e+01 -5.2398850469076415e+01 -1.0247675535941062e+02 0 0 0
944 38 1 0.0000000000000000e+00 -6.5623043123425731e+01 -5.3060156697324757e+01 -1.1196799714840941e+02 0 0 0
4560 183 4 0.0000000000000000e+00 -4.3373656806279229e+01 -4.7342686668020313e+01 -1.1484798568839774e+02 0 0 0
4926 198 3 0.0000000000000000e+00 -5.1037201264702325e+01 -4.7695406248387656e+01 -1.0524026825820501e+02 0 0 0
4561 183 4 0.0000000000000000e+00 -3.9661127429010065e+01 -5.5859308507652770e+01 -1.1039528719450270e+02 0 0 0
2797 112 4 0.0000000000000000e+00 -1.9578653691141735e+01 -1.9808843991416734e+02 -9.3975916497222997e+01 0 0 0
2796 112 4 0.0000000000000000e+00 -2.8295938147916914e+01 -1.9966317710681699e+02 -1.0008117328535772e+02 0 0 0
4864 195 4 0.0000000000000000e+00 -5.6858153874787753e+01 -1.4543552864202960e+02 -9.4535801015748177e+01 0 0 0
4865 195 4 0.0000000000000000e+00 -4.8857027606950005e+01 -1.4768348687736247e+02 -1.0007746240405439e+02 0 0 0
1529 62 2 0.0000000000000000e+00 -9.6268811926214923e+01 -1.3203695997105982e+02 -9.9064530534689510e+01 0 0 0
1530 62 2 0.0000000000000000e+00 -8.7115689095956199e+01 -1.3416382308392542e+02 -1.0168965846690661e+02 0 0 0
4863 195 3 0.0000000000000000e+00 -6.4135954315107611e+01 -1.3839716369443812e+02 -9.3051335994059599e+01 0 0 0
1534 62 2 0.0000000000000000e+00 -5.0969720219421433e+01 -1.3536503244516754e+02 -1.0169689290219208e+02 0 0 0
1535 62 2 0.0000000000000000e+00 -4.4830109576198005e+01 -1.3299234118612421e+02 -9.4051001502384764e+01 0 0 0
1536 62 2 0.0000000000000000e+00 -3.6144038682420259e+01 -1.2926528637535398e+02 -9.1486685690374998e+01 0 0 0
1527 62 2 0.0000000000000000e+00 -1.0320710362155852e+02 -1.1635270553205906e+02 -1.0039852170131579e+02 0 0 0
4861 195 4 0.0000000000000000e+00 -7.4798139741883830e+01 -1.2675647890989133e+02 -9.3184635175935924e+01 0 0 0
4860 195 4 0.0000000000000000e+00 -7.6632966489498102e+01 -1.1714311923799401e+02 -9.5106887079627924e+01 0 0 0
2495 100 2 0.0000000000000000e+00 -4.5881922826351349e+01 -1.2079482726051144e+02 -9.1394941472343859e+01 0 0 0
1538 62 1 0.0000000000000000e+00 -3.0021595088596150e+01 -1.1491833018587390e+02 -9.3210293691918537e+01 0 0 0
1537 62 2 0.0000000000000000e+00 -2.7635974309717458e+01 -1.2480924880121707e+02 -9.5136269802995287e+01 0 0 0
3804 153 4 0.0000000000000000e+00 -9.5100814745726332e+00 -1.2663161505489734e+02 -9.6225041325715623e+01 0 0 0
1526 62 1 0.0000000000000000e+00 -1.0873372524630119e+02 -1.0780279055384521e+02 -1.0090587023033586e+02 0 0 0
271 11 2 0.0000000000000000e+00 -8.3623296248873658e+01 -1.1105786134844399e+02 -9.1096418985343504e+01 0 0 0
272 11 2 0.0000000000000000e+00 -7.7631918924700983e+01 -1.0293172793842254e+02 -9.1190766782757152e+01 0 0 0
274 11 2 0.0000000000000000e+00 -6.4506677669416874e+01 -1.0059615571470815e+02 -9.5894715011814625e+01 0 0 0
3919 157 3 0.0000000000000000e+00 -4.9989336900245526e+01 -1.0656367861474519e+02 -9.6405645161016807e+01 0 0 0
1539 62 2 0.0000000000000000e+00 -3.7905307339721752e+01 -1.0889873481486897e+02 -9.4360799159194983e+01 0 0 0
4518 181 4 0.0000000000000000e+00 -2.9929942394395926e+01 -1.0882668988511271e+02 -1.0050444138283167e+02 0 0 0
1649 66 2 0.0000000000000000e+00 -2.6811197968162499e+01 -1.0575472767961568e+02 -9.1722139460536468e+01 0 0 0
1650 66 1 0.0000000000000000e+00 -1.6682368848488593e+01 -1.0605830109109228e+02 -9.2433898879841180e+01 0 0 0
4512 181 4 0.0000000000000000e+00 -3.3242204725475086e+00 -1.0280874005233115e+02 -9.7942201084329014e+01 0 0 0
4511 181 4 0.0000000000000000e+00 -5.7871372602871212e+00 -1.0452603574576915e+02 -8.8564911847107098e+01 0 0 0
4856 195 4 0.0000000000000000e+00 -1.0297943096048573e+02 -9.5885543817430403e+01 -1.0067131595411233e+02 0 0 0
1896 76 2 0.0000000000000000e+00 -6.9384599158122427e+01 -9.2570286685521950e+01 -9.6682695240118321e+01 0 0 0
1895 76 2 0.0000000000000000e+00 -6.1955560275873253e+01 -8.7539613220112287e+01 -9.3209297258214008e+01 0 0 0
3918 157 4 0.0000000000000000e+00 -4.7191990869300326e+01 -9.7063935513579693e+01 -9.9034850550195159e+01 0 0 0
3917 157 4 0.0000000000000000e+00 -4.8185927967349976e+01 -8.7392250419809343e+01 -1.0015285691781372e+02 0 0 0
4855 195 4 0.0000000000000000e+00 -1.0180075241433245e+02 -8.6492244979358759e+01 -9.6849312890673446e+01 0 0 0
4854 195 4 0.0000000000000000e+00 -9.6503283660367785e+01 -7.8271378183854154e+01 -9.4192572871383149e+01 0 0 0
1833 74 2 0.0000000000000000e+00 -2.2119000186945424e+01 -7.7071784679587296e+01 -1.0004579641268636e+02 0 0 0
1834 74 2 0.0000000000000000e+00 -1.7526289556885001e+01 -8.5645340077398785e+01 -9.8963824522895067e+01 0 0 0
4853 195 4 0.0000000000000000e+00 -9.5444672404871383e+01 -6.8363747494182803e+01 -9.3800106497827230e+01 0 0 0
4852 195 4 0.0000000000000000e+00 -8.8471601533862355e+01 -6.2022867494221771e+01 -8.9018344480767198e+01 0 0 0
1832 74 1 0.0000000000000000e+00 -1.8539803271405088e+01 -6.8198401911424924e+01 -9.9143150299389077e+01 0 0 0
4565 183 4 0.0000000000000000e+00 -2.3720565697108306e+01 -7.0962819785070664e+01 -8.9038266637743789e+01 0 0 0
4563 183 3 0.0000000000000000e+00 -2.7835450377950885e+01 -6.1817094759216936e+01 -9.5645113754398324e+01 0 0 0
4826 194 3 0.0000000000000000e+00 -1.2026469164557609e+02 -4.8613026693055843e+01 -9.4275917864307630e+01 0 0 0
3905 157 4 0.0000000000000000e+00 -8.8047837249729056e+01 -5.3416678369357676e+01 -1.0111097608215418e+02 0 0 0
3906 157 4 0.0000000000000000e+00 -8.8955791249869222e+01 -4.5927376316649472e+01 -9.4154925810741290e+01 0 0 0
942 38 2 0.0000000000000000e+00 -7.0221474849855909e+01 -5.5149903814957341e+01 -9.2478826114426255e+01 0 0 0
588 24 1 0.0000000000000000e+00 -4.9433513844635442e+01 -4.6984527396984042e+01 -9.4583917614825083e+01 0 0 0
591 24 2 0.0000000000000000e+00 -2.6731501390990303e+01 -4.8098284549780317e+01 -9.7224438631246500e+01 0 0 0
592 24 2 0.0000000000000000e+00 -2.2188333930871238e+01 -5.1691817624891691e+01 -8.9052225921330120e+01 0 0 0
4393 176 4 0.0000000000000000e+00 -5.3967199893136124e+00 -4.9039520127019586e+01 -9.1819637648390895e+01 0 0 0
2799 112 4 0.0000000000000000e+00 -4.7892365110160826e+00 -1.9838638451068874e+02 -8.0730024969632083e+01 0 0 0
2798 112 4 0.0000000000000000e+00 -1.3092425635810143e+01 -1.9853483368103807e+02 -8.5832399639560265e+01 0 0 0
4862 195 4 0.0000000000000000e+00 -7.1827878322405297e+01 -1.3450279019270829e+02 -8.7993430190578820e+01 0 0 0
2494 100 1 0.0000000000000000e+00 -4.4165849343759049e+01 -1.2821742146457225e+02 -8.4710804735338911e+01 0 0 0
2493 100 2 0.0000000000000000e+00 -4.5895735714010442e+01 -1.2944291656691763e+02 -7.4854434485654309e+01 0 0 0
1222 49 2 0.0000000000000000e+00 -2.9121378897152887e+01 -1.3540604178738869e+02 -8.1140844394056245e+01 0 0 0
1223 49 2 0.0000000000000000e+00 -2.1655963036830826e+01 -1.3872259275294135e+02 -7.5496210306468143e+01 0 0 0
1540 62 2 0.0000000000000000e+00 -3.6885542368812558e+01 -1.1416041566200903e+02 -8.6281558877556293e+01 0 0 0
1541 62 2 0.0000000000000000e+00 -3.8421721730592076e+01 -1.1829644541412753e+02 -7.7225819017261074e+01 0 0 0
3803 153 4 0.0000000000000000e+00 -1.3580710723087275e+01 -1.2557296729174162e+02 -8.6867317841006596e+01 0 0 0
3802 153 4 0.0000000000000000e+00 -1.3897387811795037e+01 -1.2489890622300626e+02 -7.6401971102428519e+01 0 0 0
269 11 1 0.0000000000000000e+00 -9.6806740058277157e+01 -1.1084486457678481e+02 -7.7025208596673252e+01 0 0 0
270 11 2 0.0000000000000000e+00 -8.7752971053117165e+01 -1.1092446870622778e+02 -8.2308950851235053e+01 0 0 0
3922 157 4 0.0000000000000000e+00 -6.8394292159782140e+01 -1.1309896504755618e+02 -7.8835330980452852e+01 0 0 0
3921 157 4 0.0000000000000000e+00 -5.9891932165733714e+01 -1.1409556958143496e+02 -8.4094786948125801e+01 0 0 0
3920 157 4 0.0000000000000000e+00 -5.1206632141133532e+01 -1.0813686796241051e+02 -8.6849167290030820e+01 0 0 0
1648 66 2 0.0000000000000000e+00 -2.9324289563839326e+01 -1.0554120181680088e+02 -8.1734304736621283e+01 0 0 0
4510 181 4 0.0000000000000000e+00 -8.9493554081461344e+00 -1.0885701306030805e+02 -8.0197629891248653e+01 0 0 0
273 11 2 0.0000000000000000e+00 -6.9734398546929867e+01 -9.8228632278944076e+01 -8.7859037022399491e+01 0 0 0
1894 76 1 0.0000000000000000e+00 -5.6413221188112509e+01 -8.7565691755449492e+01 -8.5258879746643515e+01 0 0 0
2594 104 3 0.0000000000000000e+00 -5.1263716589988199e+01 -9.1526206341964141e+01 -7.5789295707338013e+01 0 0 0
2593 104 4 0.0000000000000000e+00 -4.4105002302665937e+01 -9.1397648778988085e+01 -8.2407738211344920e+01 0 0 0
2592 104 4 0.0000000000000000e+00 -3.5633477989068552e+01 -9.0694496972641730e+01 -7.6297667547303902e+01 0 0 0
2821 113 4 0.0000000000000000e+00 -1.0412474782968341e+02 -7.4688618793809582e+01 -8.0820290150675177e+01 0 0 0
1893 76 2 0.0000000000000000e+00 -5.9595316722580883e+01 -8.2348884096687385e+01 -7.7374003866215787e+01 0 0 0
1892 76 2 0.0000000000000000e+00 -6.1165023331957158e+01 -7.2841316844191027e+01 -7.6912931147634026e+01 0 0 0
2823 113 4 0.0000000000000000e+00 -1.1670207347704792e+02 -5.9604274987202920e+01 -7.9701707932029777e+01 0 0 0
2822 113 4 0.0000000000000000e+00 -1.0967472483591615e+02 -6.6534560099952756e+01 -8.3205389677482984e+01 0 0 0
4564 183 4 0.0000000000000000e+00 -3.1707759362056859e+01 -6.6079594791362808e+01 -8.7380123333359492e+01 0 0 0
4566 183 4 0.0000000000000000e+00 -1.4072452867572032e+01 -6.8825533713072303e+01 -8.5472639370278429e+01 0 0 0
4567 183 4 0.0000000000000000e+00 -7.8312785519253074e+00 -6.9083311112754117e+01 -7.7345849123449085e+01 0 0 0
4851 195 3 0.0000000000000000e+00 -9.4133416883407122e+01 -5.4150748071993007e+01 -8.4845445181037647e+01 0 0 0
941 38 2 0.0000000000000000e+00 -6.5892863767524744e+01 -5.6054558944247745e+01 -8.3393961961568181e+01 0 0 0
587 24 2 0.0000000000000000e+00 -5.7315566904147474e+01 -4.8012387815773799e+01 -8.7932111309900037e+01 0 0 0
940 38 2 0.0000000000000000e+00 -6.9438439893355209e+01 -5.5513774760121329e+01 -7.4446022725394030e+01 0 0 0
586 24 2 0.0000000000000000e+00 -5.6034439007208888e+01 -5.0925868677558825e+01 -7.8373159920991526e+01 0 0 0
594 24 1 0.0000000000000000e+00 -4.5474053547321578e+00 -5.7713084521707884e+01 -8.6507942328639530e+01 0 0 0
593 24 2 0.0000000000000000e+00 -1.3728668663327692e+01 -5.5202999127648212e+01 -8.4577312194931977e+01 0 0 0
1219 49 1 0.0000000000000000e+00 -4.3506285324883535e+01 -1.4349333885031098e+02 -6.1644990235744203e+01 0 0 0
1220 49 2 0.0000000000000000e+00 -3.8451991338878734e+01 -1.4629735737594490e+02 -6.9125004918075291e+01 0 0 0
1217 49 2 0.0000000000000000e+00 -6.0679307061750869e+01 -1.3616212283763124e+02 -6.4046225435817178e+01 0 0 0
1221 49 2 0.0000000000000000e+00 -3.4580837924173728e+01 -1.3811516334696677e+02 -7.3013999937221769e+01 0 0 0
2492 100 2 0.0000000000000000e+00 -4.2425205299221773e+01 -1.3195889858658367e+02 -6.5829360801209432e+01 0 0 0
1224 49 2 0.0000000000000000e+00 -2.3251372305105086e+01 -1.3347201529148154e+02 -6.7399311769848552e+01 0 0 0
3801 153 3 0.0000000000000000e+00 -1.4155402134029003e+01 -1.2991977230241750e+02 -6.8517759730596850e+01 0 0 0
3924 157 4 0.0000000000000000e+00 -7.5536797476609721e+01 -1.1712510432860365e+02 -6.3330674952915388e+01 0 0 0
3925 157 3 0.0000000000000000e+00 -7.2278005060285778e+01 -1.2683748519979733e+02 -6.4033624858915559e+01 0 0 0
1544 62 1 0.0000000000000000e+00 -6.1769762212082263e+01 -1.2447698960352054e+02 -6.7299982461190169e+01 0 0 0
1543 62 2 0.0000000000000000e+00 -5.1649680047449209e+01 -1.2535259485626547e+02 -6.6029529709719640e+01 0 0 0
1542 62 2 0.0000000000000000e+00 -4.3373695193650903e+01 -1.2034779500857714e+02 -6.9007505774304022e+01 0 0 0
4508 181 4 0.0000000000000000e+00 -1.1239324789286959e+01 -1.1447610431664349e+02 -6.2387108984255661e+01 0 0 0
268 11 2 0.0000000000000000e+00 -1.0011185216303346e+02 -1.0859796337275665e+02 -6.7699287956882074e+01 0 0 0