LAMMPS data file via write_data, version 5 Jun 2019, timestep = 400000000

5000 atoms
4 atom types
5223 bonds
3 bond types
4600 angles
2 angle types

-5.0000000000000000e+02 5.0000000000000000e+02 xlo xhi
-5.0000000000000000e+02 5.0000000000000000e+02 ylo yhi
-5.0000000000000000e+02 5.0000000000000000e+02 zlo zhi

Masses

1 1000
2 1000
3 1000
4 1000

Pair Coeffs # lj/cut

1 0.18 10
2 0.18 10
3 0.18 10
4 0.18 10

Bond Coeffs # harmonic

1 3 10
2 3 10
3 1.8 11.22

Angle Coeffs # cosine

1 2
2 2

Atoms # full

98 4 2 0.0000000000000000e+00 -7.4714167256056299e+01 8.2188226072237014e-01 -3.0509286382743596e+02 0 0 0
97 4 2 0.0000000000000000e+00 -7.0702390372280291e+01 8.4690092838525133e-01 -2.9579233617048192e+02 0 0 0
96 4 2 0.0000000000000000e+00 -6.3146917801963511e+01 3.8000708470416429e+00 -2.8945134766595964e+02 0 0 0
4831 194 4 0.0000000000000000e+00 -8.1244581126723887e+01 2.3983558218039130e-01 -1.9452457295703735e+02 0 0 0
4832 194 3 0.0000000000000000e+00 -7.1631479655671626e+01 -1.7373091368209350e+00 -1.9094479469830031e+02 0 0 0
4833 194 4 0.0000000000000000e+00 -6.5089557752548174e+01 5.5831777832469793e+00 -1.8967183594456733e+02 0 0 0
422 17 2 0.0000000000000000e+00 -1.0803808246935893e+02 -9.0833904492628335e+01 -1.7874496882927968e+02 0 0 0
423 17 2 0.0000000000000000e+00 -9.8028541179526485e+01 -9.0119447710544222e+01 -1.7629440017739068e+02 0 0 0
1445 58 2 0.0000000000000000e+00 -7.8089342479154880e+01 -9.0179016947769696e+01 -1.7454147803484153e+02 0 0 0
421 17 2 0.0000000000000000e+00 -1.1410035187359288e+02 -8.3766003053613218e+01 -1.7459306292980682e+02 0 0 0
424 17 2 0.0000000000000000e+00 -9.0498687234259990e+01 -8.4148266896145529e+01 -1.7949846574042400e+02 0 0 0
425 17 1 0.0000000000000000e+00 -8.6113716387105569e+01 -7.6328154865685605e+01 -1.7463692666147691e+02 0 0 0
1444 58 1 0.0000000000000000e+00 -6.9068948212979748e+01 -8.5787725509592093e+01 -1.7581149677725648e+02 0 0 0
1443 58 2 0.0000000000000000e+00 -6.6128026968629840e+01 -7.5756039571200418e+01 -1.7447502844183941e+02 0 0 0
1442 58 2 0.0000000000000000e+00 -6.0776828763494997e+01 -6.7720575339026581e+01 -1.7388575880479701e+02 0 0 0
848 34 2 0.0000000000000000e+00 -6.9712862874172956e+01 -2.2008217510926176e+01 -1.7863620503649923e+02 0 0 0
849 34 2 0.0000000000000000e+00 -7.0175671417481013e+01 -1.3589633984171233e+01 -1.8484846064708063e+02 0 0 0
847 34 2 0.0000000000000000e+00 -6.0601082296598541e+01 -1.9857551594564612e+01 -1.7617255961848420e+02 0 0 0
850 34 1 0.0000000000000000e+00 -7.7601372640778223e+01 -6.8100810861453889e+00 -1.8324239998519081e+02 0 0 0
982 40 1 0.0000000000000000e+00 -7.0521912471888726e+01 2.2635203877875560e+00 -1.7707931132727691e+02 0 0 0
1448 58 2 0.0000000000000000e+00 -1.0210175600727334e+02 -9.4935049000932054e+01 -1.6202031102878874e+02 0 0 0
420 17 2 0.0000000000000000e+00 -1.1730757748639941e+02 -7.7608079528457580e+01 -1.6731178828089878e+02 0 0 0
1447 58 2 0.0000000000000000e+00 -9.4843187753951284e+01 -8.7823404210006004e+01 -1.6443809497126611e+02 0 0 0
1446 58 2 0.0000000000000000e+00 -8.6809872084987347e+01 -8.5969202550333833e+01 -1.7055767132411574e+02 0 0 0
419 17 1 0.0000000000000000e+00 -1.1199817633033406e+02 -7.0314959090689300e+01 -1.6374744710475446e+02 0 0 0
4728 190 4 0.0000000000000000e+00 -9.2674851338823032e+01 -6.4300510311213387e+01 -1.6126022449269720e+02 0 0 0
4727 190 4 0.0000000000000000e+00 -8.5189651473361238e+01 -6.6616893133347617e+01 -1.6752176077118881e+02 0 0 0
4726 190 3 0.0000000000000000e+00 -7.6735670281995397e+01 -6.6599435181198146e+01 -1.7262667266365716e+02 0 0 0
1441 58 2 0.0000000000000000e+00 -5.2338914584624419e+01 -6.6289239533251333e+01 -1.6766935064014066e+02 0 0 0
4733 190 4 0.0000000000000000e+00 -1.3334269541503508e+02 -5.1973281258349751e+01 -1.6423875975392389e+02 0 0 0
4732 190 3 0.0000000000000000e+00 -1.2577126013954052e+02 -5.5660002367973959e+01 -1.6992252681461778e+02 0 0 0
4731 190 4 0.0000000000000000e+00 -1.1831184064447898e+02 -6.1077154006696652e+01 -1.6716409879410961e+02 0 0 0
4730 190 4 0.0000000000000000e+00 -1.1069355272307109e+02 -5.7047023186996668e+01 -1.6126479555889847e+02 0 0 0
4729 190 4 0.0000000000000000e+00 -1.0031121008119086e+02 -5.7782440924259085e+01 -1.6208317682943303e+02 0 0 0
251 11 1 0.0000000000000000e+00 -1.2551125870294051e+02 -4.4014108938340406e+01 -1.6830377489040808e+02 0 0 0
4571 183 4 0.0000000000000000e+00 -5.7568768589433247e+01 -3.5425999199494242e+01 -1.6824511854218940e+02 0 0 0
4572 183 4 0.0000000000000000e+00 -6.2535880885844193e+01 -2.8093995446993183e+01 -1.6397544717811027e+02 0 0 0
846 34 2 0.0000000000000000e+00 -5.3582297736077678e+01 -2.5068571535619288e+01 -1.7107070092626930e+02 0 0 0
984 40 2 0.0000000000000000e+00 -7.2448868808899718e+01 -1.2459384392139226e+01 -1.6397142362014560e+02 0 0 0
2348 94 2 0.0000000000000000e+00 -8.6973138020141533e+01 -5.9182587168244485e+00 -1.6489695432417295e+02 0 0 0
2347 94 2 0.0000000000000000e+00 -7.8357390684728216e+01 -2.3619224912543806e+00 -1.6728858441243327e+02 0 0 0
983 40 2 0.0000000000000000e+00 -7.1427081071228884e+01 -6.1605310599983039e+00 -1.7175036093924911e+02 0 0 0
2346 94 2 0.0000000000000000e+00 -7.0359974084777832e+01 1.6175959799249697e+00 -1.6268323982281308e+02 0 0 0
2345 94 2 0.0000000000000000e+00 -6.0922786263388666e+01 4.9215558032285607e+00 -1.6269770468658672e+02 0 0 0
1449 58 2 0.0000000000000000e+00 -1.0311340432763231e+02 -1.0363335228038764e+02 -1.5775771218582452e+02 0 0 0
1450 58 1 0.0000000000000000e+00 -1.0202770005864295e+02 -9.5160569153099360e+01 -1.5152657284871898e+02 0 0 0
418 17 2 0.0000000000000000e+00 -1.0436183538474508e+02 -6.8247456913774883e+01 -1.5861690776951809e+02 0 0 0
417 17 2 0.0000000000000000e+00 -9.6382366286237271e+01 -6.8617292987076794e+01 -1.5265698383439488e+02 0 0 0
416 17 2 0.0000000000000000e+00 -8.7684462568253124e+01 -6.8562772379605107e+01 -1.4875758949404624e+02 0 0 0
415 17 2 0.0000000000000000e+00 -8.1774003038012367e+01 -7.6032579383262842e+01 -1.4698165917752723e+02 0 0 0
4735 190 4 0.0000000000000000e+00 -1.2273320159843324e+02 -5.5170063204134848e+01 -1.4946287727330520e+02 0 0 0
4734 190 4 0.0000000000000000e+00 -1.3015514846883542e+02 -5.1141364538342572e+01 -1.5450566668412182e+02 0 0 0
4737 190 4 0.0000000000000000e+00 -1.0691818331282826e+02 -5.0533286370534462e+01 -1.4704824700628592e+02 0 0 0
4865 195 4 0.0000000000000000e+00 -4.9464055612316884e+01 -6.0887264771674353e+01 -1.4685031516018586e+02 0 0 0
252 11 2 0.0000000000000000e+00 -1.2404889642775504e+02 -4.1440714416737990e+01 -1.5860310801042837e+02 0 0 0
253 11 2 0.0000000000000000e+00 -1.2517187270038596e+02 -3.6915617135240339e+01 -1.5004204439538378e+02 0 0 0
4738 190 3 0.0000000000000000e+00 -1.0103112105291457e+02 -4.3408548160946168e+01 -1.4914803841187071e+02 0 0 0
514 21 2 0.0000000000000000e+00 -8.3617893593260234e+01 -3.9843583346503273e+01 -1.4629361576257185e+02 0 0 0
4573 183 4 0.0000000000000000e+00 -6.9026598477331135e+01 -2.3346930643037862e+01 -1.5762690785645484e+02 0 0 0
4574 183 4 0.0000000000000000e+00 -7.2665117199901857e+01 -2.2429898614434141e+01 -1.4855498221520139e+02 0 0 0
3720 149 4 0.0000000000000000e+00 -1.1122265163780978e+02 -1.7737257885190811e+01 -1.4984700878419440e+02 0 0 0
2350 94 1 0.0000000000000000e+00 -9.7696652119315289e+01 -9.5651420140149135e+00 -1.4869916545851765e+02 0 0 0
986 40 2 0.0000000000000000e+00 -8.4624169389981958e+01 -1.0949781898440499e+01 -1.4946072747537036e+02 0 0 0
985 40 2 0.0000000000000000e+00 -8.1379345819679529e+01 -1.2308072228451522e+01 -1.5889013644679275e+02 0 0 0
3721 149 4 0.0000000000000000e+00 -1.1129548483159100e+02 -7.6705650594285366e+00 -1.4799362872302132e+02 0 0 0
3722 149 4 0.0000000000000000e+00 -1.1128919062367386e+02 2.1053928516180602e+00 -1.4797871126133242e+02 0 0 0
2349 94 2 0.0000000000000000e+00 -9.3124813064723583e+01 -6.9935758883663919e+00 -1.5710407613611829e+02 0 0 0
666 27 2 0.0000000000000000e+00 -7.8603680721267807e+01 3.0921229529792185e+00 -1.4929456231982209e+02 0 0 0
2344 94 1 0.0000000000000000e+00 -5.1801430114232588e+01 5.6229920671851330e+00 -1.5872912316816220e+02 0 0 0
4875 195 3 0.0000000000000000e+00 -1.0009648420628908e+02 -9.4498400645571238e+01 -1.4105469767617143e+02 0 0 0
4874 195 4 0.0000000000000000e+00 -9.1345258444205626e+01 -9.3896084851461083e+01 -1.3765643954311670e+02 0 0 0
412 17 2 0.0000000000000000e+00 -6.7332374539598405e+01 -9.9104340404123150e+01 -1.3835307301511864e+02 0 0 0
4873 195 4 0.0000000000000000e+00 -8.7425692887896645e+01 -8.4492600093504407e+01 -1.3456439997662451e+02 0 0 0
414 17 2 0.0000000000000000e+00 -7.6427461076123734e+01 -8.3928862890571651e+01 -1.4392939013346253e+02 0 0 0
413 17 1 0.0000000000000000e+00 -7.0940931856480518e+01 -8.9680974199343666e+01 -1.3791565218096295e+02 0 0 0
4863 195 3 0.0000000000000000e+00 -4.9604583233704318e+01 -7.7748468334234957e+01 -1.4302917260710990e+02 0 0 0
517 21 2 0.0000000000000000e+00 -8.0468303963574499e+01 -6.5325254809443706e+01 -1.4106607965558095e+02 0 0 0
519 21 1 0.0000000000000000e+00 -6.5898182346245392e+01 -6.4816814120493945e+01 -1.3858805233100998e+02 0 0 0
4864 195 4 0.0000000000000000e+00 -5.4705936882344709e+01 -6.9020702661974525e+01 -1.4417829738251200e+02 0 0 0
4736 190 4 0.0000000000000000e+00 -1.1497301816185383e+02 -5.6245032823727243e+01 -1.4397024405033466e+02 0 0 0
515 21 2 0.0000000000000000e+00 -8.2428030475316675e+01 -4.9449554368105396e+01 -1.4341730683989567e+02 0 0 0
516 21 2 0.0000000000000000e+00 -8.6688015365377851e+01 -5.7971752990967850e+01 -1.4303021517312004e+02 0 0 0
518 21 2 0.0000000000000000e+00 -7.2140668431348573e+01 -6.1735153281219389e+01 -1.4585330225770912e+02 0 0 0
4869 195 3 0.0000000000000000e+00 -7.0736843673451034e+01 -5.5379685382165107e+01 -1.3455589631057083e+02 0 0 0
4866 195 4 0.0000000000000000e+00 -5.5046413793277488e+01 -5.2290391547440194e+01 -1.4507201997794309e+02 0 0 0
502 21 2 0.0000000000000000e+00 -5.7128258459555525e+01 -5.8270411598457869e+01 -1.3512409132414672e+02 0 0 0
4739 190 4 0.0000000000000000e+00 -9.4934472460760517e+01 -3.6091197311993753e+01 -1.4566478705570671e+02 0 0 0
4868 195 4 0.0000000000000000e+00 -6.7001255571966212e+01 -4.8095868855588385e+01 -1.4081465972727963e+02 0 0 0
4867 195 4 0.0000000000000000e+00 -5.9194455717114479e+01 -4.3189753520823459e+01 -1.4454815366054251e+02 0 0 0
254 11 2 0.0000000000000000e+00 -1.2529081958985849e+02 -3.3245535468853788e+01 -1.4031601843826667e+02 0 0 0
3719 149 3 0.0000000000000000e+00 -1.0926382105335544e+02 -2.3509188944033152e+01 -1.4179818241091772e+02 0 0 0
3718 149 4 0.0000000000000000e+00 -1.1051345556102767e+02 -2.9099961226288031e+01 -1.3323383894285539e+02 0 0 0
4740 190 4 0.0000000000000000e+00 -9.3876140713293765e+01 -2.7889901147056257e+01 -1.4044259651599484e+02 0 0 0
513 21 1 0.0000000000000000e+00 -8.2099779827532416e+01 -3.2461740753194825e+01 -1.3908387489278249e+02 0 0 0
4575 183 3 0.0000000000000000e+00 -7.2026019287242917e+01 -3.0608698494865624e+01 -1.4292434749401778e+02 0 0 0
4741 190 4 0.0000000000000000e+00 -9.2411340455117781e+01 -1.7789162422816020e+01 -1.3848605804865437e+02 0 0 0
4742 190 4 0.0000000000000000e+00 -9.6864918750057470e+01 -1.0234403276670973e+01 -1.3435077168759551e+02 0 0 0
987 40 2 0.0000000000000000e+00 -8.4889916046100097e+01 -9.0370988391759077e+00 -1.3959469866542383e+02 0 0 0
3715 149 4 0.0000000000000000e+00 -8.4851517869347887e+01 -1.8350161684925094e+01 -1.3260266734188571e+02 0 0 0
4743 190 4 0.0000000000000000e+00 -9.7507422228190663e+01 -1.9427138212153000e-01 -1.3290782935291591e+02 0 0 0
988 40 1 0.0000000000000000e+00 -8.2885939673390709e+01 -9.1494458543165480e-01 -1.3443444517311499e+02 0 0 0
411 17 2 0.0000000000000000e+00 -6.6067144775889830e+01 -1.0642622696993696e+02 -1.3183957917016167e+02 0 0 0
410 17 2 0.0000000000000000e+00 -6.2458675018137392e+01 -1.1149745524272946e+02 -1.2410091293002115e+02 0 0 0
3101 125 3 0.0000000000000000e+00 -7.7256019374430480e+01 -9.1956584499544860e+01 -1.2905001746362342e+02 0 0 0
3102 125 4 0.0000000000000000e+00 -6.8078614951100363e+01 -9.3214112913341808e+01 -1.2552634485822436e+02 0 0 0
3103 125 4 0.0000000000000000e+00 -5.9001930644817186e+01 -8.9024961925771336e+01 -1.2435930476861236e+02 0 0 0
3104 125 4 0.0000000000000000e+00 -5.7796462421221818e+01 -7.9616596759607091e+01 -1.2617931573007633e+02 0 0 0
4872 195 4 0.0000000000000000e+00 -8.9618513618832125e+01 -7.5406249654505743e+01 -1.3081971826839896e+02 0 0 0
4871 195 4 0.0000000000000000e+00 -8.3202628977974925e+01 -6.9079274004615087e+01 -1.2704400640906023e+02 0 0 0
520 21 2 0.0000000000000000e+00 -6.6722556714562998e+01 -6.4606367701531227e+01 -1.2885551642490833e+02 0 0 0
3105 125 4 0.0000000000000000e+00 -5.3389956123774908e+01 -7.1758020821876798e+01 -1.3053415390061488e+02 0 0 0
4870 195 4 0.0000000000000000e+00 -7.6613344382757404e+01 -6.2203833740258709e+01 -1.2990487440229654e+02 0 0 0
521 21 2 0.0000000000000000e+00 -7.0099813514398576e+01 -5.6558621146210591e+01 -1.2257425821136040e+02 0 0 0
501 21 1 0.0000000000000000e+00 -5.1883047302947084e+01 -5.0579677976824840e+01 -1.3185714166606959e+02 0 0 0
503 21 2 0.0000000000000000e+00 -5.6756370403297829e+01 -5.9583667476446251e+01 -1.2477489659802059e+02 0 0 0
255 11 2 0.0000000000000000e+00 -1.2588105334791285e+02 -3.0821980238477192e+01 -1.3045830496840534e+02 0 0 0
256 11 2 0.0000000000000000e+00 -1.2519494318674509e+02 -2.6494519092832661e+01 -1.2173166168354696e+02 0 0 0
2626 106 3 0.0000000000000000e+00 -1.0912015902777104e+02 -3.0227752930869368e+01 -1.2057010572382872e+02 0 0 0
3717 149 4 0.0000000000000000e+00 -1.0149351315669857e+02 -2.7904285442891059e+01 -1.2811273710831381e+02 0 0 0
3716 149 4 0.0000000000000000e+00 -9.3913542250259354e+01 -2.1872947327078176e+01 -1.2914416226806935e+02 0 0 0
512 21 2 0.0000000000000000e+00 -7.9338419654781035e+01 -2.9935661032839814e+01 -1.2990715860629058e+02 0 0 0
511 21 2 0.0000000000000000e+00 -7.9041443354197312e+01 -2.4177843672225844e+01 -1.2146440603762312e+02 0 0 0
3714 149 4 0.0000000000000000e+00 -8.5739143806855068e+01 -1.0097763455277729e+01 -1.2614631428031488e+02 0 0 0
3713 149 3 0.0000000000000000e+00 -8.6777406641285708e+01 -5.3990160150582445e-01 -1.2449572126533565e+02 0 0 0
3125 125 3 0.0000000000000000e+00 -5.2753950958464209e+01 5.4200537018495076e+00 -1.2121891538730155e+02 0 0 0
408 17 2 0.0000000000000000e+00 -6.6665268005400051e+01 -1.0491679201971891e+02 -1.0953950623292815e+02 0 0 0
409 17 2 0.0000000000000000e+00 -5.8401093543740856e+01 -1.0728768496291521e+02 -1.1557326984511184e+02 0 0 0
3990 160 4 0.0000000000000000e+00 -8.6337035014378969e+01 -9.6144957954306449e+01 -1.0609769572744952e+02 0 0 0
4400 176 3 0.0000000000000000e+00 -5.7024894034264783e+01 -9.5610892568671019e+01 -1.1077134266530877e+02 0 0 0
3989 160 4 0.0000000000000000e+00 -8.8468016296064775e+01 -8.7576872585021633e+01 -1.1084700015706504e+02 0 0 0
725 29 1 0.0000000000000000e+00 -7.6186704701680057e+01 -8.5154135610064898e+01 -1.0622237651861415e+02 0 0 0
4399 176 4 0.0000000000000000e+00 -5.4607047222712495e+01 -8.6266855530056873e+01 -1.1417909184513033e+02 0 0 0
4398 176 4 0.0000000000000000e+00 -4.9445172279362218e+01 -7.8092745914904754e+01 -1.1335436147463784e+02 0 0 0
522 21 2 0.0000000000000000e+00 -7.6947167889245875e+01 -5.4681170259728979e+01 -1.1515061791430482e+02 0 0 0
523 21 2 0.0000000000000000e+00 -7.7596533395282876e+01 -5.2049444918095084e+01 -1.0531232398568415e+02 0 0 0
504 21 2 0.0000000000000000e+00 -5.5687479985199033e+01 -6.0926463826704918e+01 -1.1414229896786308e+02 0 0 0
3067 123 4 0.0000000000000000e+00 -9.3845684034706963e+01 -4.7946693113116382e+01 -1.0598218837285549e+02 0 0 0
257 11 1 0.0000000000000000e+00 -1.1941440497475311e+02 -3.1972601747704857e+01 -1.1516061435760639e+02 0 0 0
2627 106 4 0.0000000000000000e+00 -1.0479205940875036e+02 -2.4598660295062977e+01 -1.1307430740073386e+02 0 0 0
258 11 2 0.0000000000000000e+00 -1.1472718446717847e+02 -3.0582033775989895e+01 -1.0660735617359242e+02 0 0 0
510 21 2 0.0000000000000000e+00 -7.9036927252384288e+01 -2.7498382637401608e+01 -1.1216855166022381e+02 0 0 0
1423 57 2 0.0000000000000000e+00 -5.5341200015639458e+01 -2.5880495879798289e+01 -1.0711796393583633e+02 0 0 0
2628 106 4 0.0000000000000000e+00 -1.0407973798121104e+02 -1.6000535674613964e+01 -1.0880638714548067e+02 0 0 0
2983 120 4 0.0000000000000000e+00 -8.0461183105509434e+01 -1.0485246592637329e+01 -1.0608759952923640e+02 0 0 0
1425 57 1 0.0000000000000000e+00 -6.7985015583742737e+01 -1.3527387337543294e+01 -1.1753811218933332e+02 0 0 0
1424 57 2 0.0000000000000000e+00 -6.1599564692691445e+01 -2.0665068696656473e+01 -1.1321796472837293e+02 0 0 0
2982 120 3 0.0000000000000000e+00 -7.0837172086588581e+01 -7.8070359599704950e+00 -1.0849744598502186e+02 0 0 0
2143 86 2 0.0000000000000000e+00 -5.8848904566335491e+01 4.1725094599522841e+00 -1.0649726959992202e+02 0 0 0
2981 120 4 0.0000000000000000e+00 -6.0658025161254081e+01 -7.1528518796505889e+00 -1.0619604094545765e+02 0 0 0
2980 120 4 0.0000000000000000e+00 -5.0575387772742772e+01 -4.2915416889093043e+00 -1.0639250624005861e+02 0 0 0
3991 160 4 0.0000000000000000e+00 -8.3909005276818533e+01 -1.0032538673841637e+02 -9.7604844366247534e+01 0 0 0
3992 160 4 0.0000000000000000e+00 -7.8048188714984903e+01 -9.4574311622880373e+01 -9.1867117323481622e+01 0 0 0
406 17 2 0.0000000000000000e+00 -6.5662785532621498e+01 -9.7916121659489136e+01 -9.2907930568545368e+01 0 0 0
407 17 1 0.0000000000000000e+00 -6.5619984955657330e+01 -9.7494784564010558e+01 -1.0323116443390605e+02 0 0 0
3988 160 3 0.0000000000000000e+00 -8.5413609424941725e+01 -8.0388224020462715e+01 -1.0437488777172177e+02 0 0 0
724 29 2 0.0000000000000000e+00 -7.3583238243742727e+01 -8.2379539646185364e+01 -9.6776355508652415e+01 0 0 0
3987 160 4 0.0000000000000000e+00 -8.6099599246282892e+01 -7.2535277499758948e+01 -9.7667652245140545e+01 0 0 0
270 11 2 0.0000000000000000e+00 -5.0407586514400471e+01 -7.4616448335099719e+01 -9.3941255259991806e+01 0 0 0
3068 123 4 0.0000000000000000e+00 -1.0338832446722952e+02 -4.9492913425197649e+01 -1.0202719303042332e+02 0 0 0
3065 123 4 0.0000000000000000e+00 -8.4479924933213937e+01 -6.2048767660683808e+01 -9.6731207501300929e+01 0 0 0
3066 123 4 0.0000000000000000e+00 -8.6594883660707282e+01 -5.3262058523597382e+01 -1.0154310466607298e+02 0 0 0
524 21 2 0.0000000000000000e+00 -7.5039846693868924e+01 -5.0954857264291213e+01 -9.5334666098134733e+01 0 0 0
505 21 2 0.0000000000000000e+00 -5.5148835572958305e+01 -6.0927326396412184e+01 -1.0343016736520856e+02 0 0 0
506 21 2 0.0000000000000000e+00 -5.7370557499460759e+01 -5.4189939694510400e+01 -9.6808013369786053e+01 0 0 0
3069 123 3 0.0000000000000000e+00 -1.0742221062762893e+02 -4.8641892968837517e+01 -9.2567363653301911e+01 0 0 0
507 21 1 0.0000000000000000e+00 -6.3783038092009861e+01 -4.7235342994739483e+01 -1.0032437622840636e+02 0 0 0
508 21 2 0.0000000000000000e+00 -7.1861960182357208e+01 -4.1364950626823166e+01 -1.0110979006429432e+02 0 0 0
259 11 2 0.0000000000000000e+00 -1.1137028938646871e+02 -2.4899269212588635e+01 -9.9441814749449577e+01 0 0 0
260 11 2 0.0000000000000000e+00 -1.0415705504648993e+02 -2.4073943498170284e+01 -9.2871879882725409e+01 0 0 0
130 6 2 0.0000000000000000e+00 -9.2992042643717042e+01 -2.8079041903749538e+01 -9.8244773393953707e+01 0 0 0
131 6 2 0.0000000000000000e+00 -9.8794540258069276e+01 -3.3596878092341832e+01 -9.1953926340917803e+01 0 0 0
509 21 2 0.0000000000000000e+00 -7.8154647023900651e+01 -3.4359394099338623e+01 -1.0484709614416867e+02 0 0 0
129 6 2 0.0000000000000000e+00 -8.3842508412830824e+01 -2.4990891951575907e+01 -1.0033737574216299e+02 0 0 0
127 6 2 0.0000000000000000e+00 -6.9897972564926647e+01 -3.4704719107157025e+01 -9.1894171455786918e+01 0 0 0
128 6 2 0.0000000000000000e+00 -7.4355938499271147e+01 -2.7855680128536179e+01 -9.7497852834975049e+01 0 0 0
1422 57 2 0.0000000000000000e+00 -5.3563847527108130e+01 -2.5380230417268550e+01 -9.7438707735580223e+01 0 0 0
2629 106 4 0.0000000000000000e+00 -1.0222778287190195e+02 -1.5875115538396447e+01 -9.8384785514135828e+01 0 0 0
2630 106 4 0.0000000000000000e+00 -9.3146003956031237e+01 -1.7102801840618238e+01 -9.3505183339912065e+01 0 0 0
2984 120 4 0.0000000000000000e+00 -8.0974991159105315e+01 -1.1977067467481939e+01 -9.6360280572809401e+01 0 0 0
2144 86 1 0.0000000000000000e+00 -5.8933742183975049e+01 -6.1690805323904541e-01 -9.7735877482556063e+01 0 0 0
3993 160 4 0.0000000000000000e+00 -7.5923824422190947e+01 -9.6917222307203801e+01 -8.2352753532740707e+01 0 0 0
405 17 2 0.0000000000000000e+00 -6.7588564450554003e+01 -1.0330063340177287e+02 -8.4521556644980635e+01 0 0 0
137 6 2 0.0000000000000000e+00 -9.2279366279826803e+01 -7.7637398121817640e+01 -9.1043368742381901e+01 0 0 0
3985 160 4 0.0000000000000000e+00 -7.6564448398695959e+01 -7.9328071974784393e+01 -8.1782493189946962e+01 0 0 0
3984 160 4 0.0000000000000000e+00 -6.8287604615751818e+01 -8.4858201447265969e+01 -8.1056497212402064e+01 0 0 0
3983 160 4 0.0000000000000000e+00 -5.8884137392173223e+01 -8.2444941819722033e+01 -7.8416566081119484e+01 0 0 0
3982 160 3 0.0000000000000000e+00 -5.1859553922255650e+01 -8.4784267010440061e+01 -8.5594598235808007e+01 0 0 0
138 6 1 0.0000000000000000e+00 -9.0174500138310762e+01 -7.5624521281784993e+01 -8.1087485117601602e+01 0 0 0
135 6 2 0.0000000000000000e+00 -1.0109857078179394e+02 -6.6035147178243520e+01 -8.4654578650790583e+01 0 0 0
136 6 2 0.0000000000000000e+00 -1.0189214781086054e+02 -7.5845496480158886e+01 -8.8062936396461893e+01 0 0 0
3986 160 4 0.0000000000000000e+00 -8.2583262174683924e+01 -7.4153051605995998e+01 -8.8638301761207259e+01 0 0 0
723 29 2 0.0000000000000000e+00 -7.1373351782409529e+01 -7.6023732058674426e+01 -8.8901517105807258e+01 0 0 0
722 29 2 0.0000000000000000e+00 -7.4522477247522076e+01 -6.9478544604117062e+01 -8.1758786025674695e+01 0 0 0
268 11 2 0.0000000000000000e+00 -5.9555272486978815e+01 -6.7770556378882304e+01 -8.1736618311802957e+01 0 0 0
269 11 1 0.0000000000000000e+00 -5.8619332313812947e+01 -7.5142226639446491e+01 -8.8750928245239663e+01 0 0 0
134 6 2 0.0000000000000000e+00 -1.0035338081248686e+02 -5.6049318214596184e+01 -8.2381561710194148e+01 0 0 0
3064 123 4 0.0000000000000000e+00 -8.0811216968521407e+01 -6.0122993357274304e+01 -8.7273585480988658e+01 0 0 0
3063 123 3 0.0000000000000000e+00 -8.0704935442472134e+01 -5.6390897962156139e+01 -7.8156409531873749e+01 0 0 0
525 21 1 0.0000000000000000e+00 -7.9174463305918692e+01 -4.9597246652538665e+01 -8.6552640037168530e+01 0 0 0
4388 176 3 0.0000000000000000e+00 -5.5124224337235098e+01 -5.1386855178497832e+01 -8.0089116650314409e+01 0 0 0
3070 123 4 0.0000000000000000e+00 -1.1073698545449044e+02 -4.3299883380080402e+01 -8.5278219258170282e+01 0 0 0
133 6 2 0.0000000000000000e+00 -1.0302200601590989e+02 -4.7275014938340014e+01 -7.8408738060686886e+01 0 0 0
132 6 1 0.0000000000000000e+00 -9.9719058935419582e+01 -4.2706704805231155e+01 -8.6623836193831380e+01 0 0 0
126 6 1 0.0000000000000000e+00 -6.8321828745816276e+01 -4.4152537973591954e+01 -8.8862345916976992e+01 0 0 0
4389 176 4 0.0000000000000000e+00 -5.3760729266838034e+01 -4.1382795994088404e+01 -7.8525193889403212e+01 0 0 0
3054 123 4 0.0000000000000000e+00 -1.3212626041285620e+02 -2.1805969311686471e+01 -7.9019902100981682e+01 0 0 0
3071 123 4 0.0000000000000000e+00 -1.1550883544718378e+02 -3.5133787484611119e+01 -8.1262194052151884e+01 0 0 0
261 11 2 0.0000000000000000e+00 -9.6793843930126044e+01 -2.4696123899871562e+01 -8.5034905369849596e+01 0 0 0
262 11 2 0.0000000000000000e+00 -8.7593190864147644e+01 -2.6447180462887406e+01 -8.0905230890626811e+01 0 0 0
1419 57 1 0.0000000000000000e+00 -6.5871577001931954e+01 -3.4649454749305320e+01 -7.7919205430545091e+01 0 0 0
1421 57 2 0.0000000000000000e+00 -5.2483185568285720e+01 -2.3504102451007203e+01 -8.7710527566662932e+01 0 0 0
1420 57 2 0.0000000000000000e+00 -5.8480567021169307e+01 -2.9379180585901054e+01 -8.2093915242503499e+01 0 0 0
2985 120 4 0.0000000000000000e+00 -7.7924815566584670e+01 -1.2311933353357855e+01 -8.6827079453567038e+01 0 0 0
2986 120 4 0.0000000000000000e+00 -7.6457959727750250e+01 -1.6262243905402098e+01 -7.8157188959124738e+01 0 0 0
2631 106 4 0.0000000000000000e+00 -8.8784195075815987e+01 -9.2301407316063315e+00 -8.7669271301726837e+01 0 0 0
2146 86 2 0.0000000000000000e+00 -5.4977772320024656e+01 -1.0350954886662757e+01 -8.0660143064306112e+01 0 0 0
2632 106 3 0.0000000000000000e+00 -8.2324365201488433e+01 -1.4514347414395457e+00 -8.4437837468712956e+01 0 0 0
2633 106 4 0.0000000000000000e+00 -7.5739808317008880e+01 2.7671269613303284e+00 -7.8088672251585962e+01 0 0 0
2145 86 2 0.0000000000000000e+00 -5.7321994489511262e+01 -5.9861848639964794e+00 -8.9300991891681690e+01 0 0 0
2635 106 4 0.0000000000000000e+00 -5.8084091301764587e+01 2.2100986300350645e+00 -7.7980899942192949e+01 0 0 0
2636 106 4 0.0000000000000000e+00 -5.1650278845520766e+01 3.7392347159819370e+00 -8.5680242526459452e+01 0 0 0
403 17 2 0.0000000000000000e+00 -6.4580974482944811e+01 -1.1733382655037632e+02 -7.2613113324339167e+01 0 0 0
402 17 2 0.0000000000000000e+00 -5.8333029299297102e+01 -1.2043367213616372e+02 -6.5819555046513017e+01 0 0 0
401 17 1 0.0000000000000000e+00 -6.1312056262905564e+01 -1.3006275286013070e+02 -6.4595594979947293e+01 0 0 0
2381 96 2 0.0000000000000000e+00 -7.4245974651479017e+01 -1.1257864327838307e+02 -6.8396170764114387e+01 0 0 0
404 17 2 0.0000000000000000e+00 -6.4258594026949467e+01 -1.0816270420110789e+02 -7.6729205435968723e+01 0 0 0
3995 160 4 0.0000000000000000e+00 -7.7428756267838750e+01 -9.4626871236124245e+01 -7.2944279971680686e+01 0 0 0
3994 160 3 0.0000000000000000e+00 -7.3599016685483235e+01 -1.0312608602886746e+02 -7.4857626613896429e+01 0 0 0
153 7 2 0.0000000000000000e+00 -5.4715337925224240e+01 -9.0306184451977387e+01 -6.7224185842289842e+01 0 0 0
3996 160 4 0.0000000000000000e+00 -7.9816314947738803e+01 -8.4566644504616079e+01 -7.1471578825733786e+01 0 0 0
3997 160 4 0.0000000000000000e+00 -7.4598285429243603e+01 -7.9966901722067661e+01 -6.4786147734324729e+01 0 0 0
139 6 2 0.0000000000000000e+00 -8.4813035867663430e+01 -7.4576186457634734e+01 -7.3305493926747801e+01 0 0 0
721 29 2 0.0000000000000000e+00 -7.7112138868710332e+01 -6.5001808982531145e+01 -7.3510766933581465e+01 0 0 0
720 29 2 0.0000000000000000e+00 -8.1883341279387793e+01 -6.2805268468252407e+01 -6.5227192561339649e+01 0 0 0
4386 176 4 0.0000000000000000e+00 -5.2315636671937504e+01 -6.9333889081898334e+01 -7.1435996521265139e+01 0 0 0
4598 184 4 0.0000000000000000e+00 -1.7448426520221321e+02 -5.3026228368451285e+01 -7.1183697658442838e+01 0 0 0
3061 123 4 0.0000000000000000e+00 -9.6152672393392265e+01 -5.0825020883381804e+01 -6.6300672083893673e+01 0 0 0
3062 123 4 0.0000000000000000e+00 -8.8802483890620650e+01 -5.2672228571717916e+01 -7.3055796505151790e+01 0 0 0
267 11 2 0.0000000000000000e+00 -6.4224468354784747e+01 -6.1383733850037103e+01 -7.5707581295458169e+01 0 0 0
266 11 2 0.0000000000000000e+00 -7.0456953382048255e+01 -5.7444181438293427e+01 -6.8834746457209775e+01 0 0 0
4387 176 4 0.0000000000000000e+00 -5.3277696757735477e+01 -6.1093675486197135e+01 -7.6785846537296180e+01 0 0 0
1417 57 2 0.0000000000000000e+00 -6.1570467719162430e+01 -5.2648420340013459e+01 -7.1762208961922994e+01 0 0 0
1416 57 2 0.0000000000000000e+00 -5.5513343139044579e+01 -5.9089086279463302e+01 -6.7675758413381942e+01 0 0 0
711 29 2 0.0000000000000000e+00 -1.4497464040829783e+02 -3.5579256102396698e+01 -7.3316782653039738e+01 0 0 0
3056 123 4 0.0000000000000000e+00 -1.3197451141676322e+02 -4.0292831140513407e+01 -7.7768076722477232e+01 0 0 0
712 29 2 0.0000000000000000e+00 -1.3776380607882416e+02 -3.5870253113440974e+01 -6.6389801671507612e+01 0 0 0
3057 123 3 0.0000000000000000e+00 -1.2438480174814569e+02 -4.1421850799368983e+01 -7.1474204413269348e+01 0 0 0
3058 123 4 0.0000000000000000e+00 -1.1596893705522203e+02 -4.6535623195411233e+01 -7.1492123560278870e+01 0 0 0
3059 123 4 0.0000000000000000e+00 -1.0840314617546119e+02 -4.2178935790005383e+01 -6.7046936068606996e+01 0 0 0
264 11 2 0.0000000000000000e+00 -7.7471830161320284e+01 -3.9480659437551175e+01 -6.9511039640036259e+01 0 0 0
265 11 2 0.0000000000000000e+00 -7.3946396235303752e+01 -4.8301191486074437e+01 -6.6819081022309462e+01 0 0 0
1418 57 2 0.0000000000000000e+00 -6.6270442396386940e+01 -4.3761550977578388e+01 -7.2764897391947883e+01 0 0 0
709 29 2 0.0000000000000000e+00 -1.5854068782061248e+02 -2.6996573148974274e+01 -6.8500572131132444e+01 0 0 0
710 29 2 0.0000000000000000e+00 -1.5494608393739622e+02 -3.4811247959025764e+01 -7.4328168163227019e+01 0 0 0
3055 123 4 0.0000000000000000e+00 -1.3571883053183953e+02 -3.0692910569874826e+01 -7.6331154500539967e+01 0 0 0
3073 123 4 0.0000000000000000e+00 -1.3012557219761928e+02 -2.8253414102510394e+01 -6.8602505534370835e+01 0 0 0
3072 123 4 0.0000000000000000e+00 -1.2419143814256789e+02 -2.9816138289425261e+01 -7.7381406043848742e+01 0 0 0
263 11 1 0.0000000000000000e+00 -8.1031474410860184e+01 -3.2226156651408331e+01 -7.5246053978227025e+01 0 0 0
2987 120 4 0.0000000000000000e+00 -7.7226735529274066e+01 -2.2352435288712122e+01 -7.0306088471587202e+01 0 0 0
2988 120 3 0.0000000000000000e+00 -7.6606588094884216e+01 -3.0276532445024795e+01 -6.5018428224311464e+01 0 0 0
3651 147 3 0.0000000000000000e+00 -6.7798625025030731e+01 -2.6751525736080939e+01 -6.9703228261227011e+01 0 0 0
3652 147 4 0.0000000000000000e+00 -6.5570781278866633e+01 -3.4827220144672800e+01 -6.4524685683508480e+01 0 0 0
3053 123 4 0.0000000000000000e+00 -1.2881019663513700e+02 -1.4316896018738609e+01 -7.4218395039197759e+01 0 0 0
3052 123 4 0.0000000000000000e+00 -1.2424032337984994e+02 -1.0480289749826145e+01 -6.6327782806508850e+01 0 0 0
4484 180 4 0.0000000000000000e+00 -7.6253466466327353e+01 -1.3280602239617506e+01 -6.4667220785998310e+01 0 0 0