LAMMPS data file via write_data, version 5 Jun 2019, timestep = 300000000

5000 atoms
4 atom types
5225 bonds
3 bond types
4600 angles
2 angle types

-5.0000000000000000e+02 5.0000000000000000e+02 xlo xhi
-5.0000000000000000e+02 5.0000000000000000e+02 ylo yhi
-5.0000000000000000e+02 5.0000000000000000e+02 zlo zhi

Masses

1 1000
2 1000
3 1000
4 1000

Pair Coeffs # lj/cut

1 0.178 10
2 0.178 10
3 0.178 10
4 0.178 10

Bond Coeffs # harmonic

1 3 10
2 3 10
3 1.777 11.22

Angle Coeffs # cosine

1 2
2 2

Atoms # full

2475 99 1 0.0000000000000000e+00 -6.4589156778096523e+01 -9.6575366425506264e+00 -2.1593475427510862e+02 0 0 0
2013 81 1 0.0000000000000000e+00 1.1938564307128006e+01 -1.1577193308270427e+01 -2.0078700584940717e+02 0 0 0
826 34 1 0.0000000000000000e+00 5.1516022867653799e+00 -6.6399738348381462e+01 -1.7796129658859175e+02 0 0 0
258 11 2 0.0000000000000000e+00 -3.9178707766014121e+01 -5.8555189148855895e+01 -1.8365259677173256e+02 0 0 0
259 11 2 0.0000000000000000e+00 -3.1409261569709493e+01 -5.2223178811150376e+01 -1.8157660111942297e+02 0 0 0
257 11 1 0.0000000000000000e+00 -3.7367973487116394e+01 -5.9168696124873854e+01 -1.7387085873691063e+02 0 0 0
828 34 2 0.0000000000000000e+00 -4.7385919326630210e+00 -4.9701888567833542e+01 -1.7903562832547760e+02 0 0 0
827 34 2 0.0000000000000000e+00 1.0269398435502444e+00 -5.7560523002782119e+01 -1.7910271220536990e+02 0 0 0
1423 57 2 0.0000000000000000e+00 -1.1299033865701274e+02 -3.7700749143217735e+01 -1.7765798973833481e+02 0 0 0
260 11 2 0.0000000000000000e+00 -3.3219129500139367e+01 -4.2487391449178020e+01 -1.8185375650942848e+02 0 0 0
261 11 2 0.0000000000000000e+00 -3.3812978087806393e+01 -3.1850177454909279e+01 -1.7998888912145975e+02 0 0 0
262 11 2 0.0000000000000000e+00 -2.7818806766902178e+01 -2.5651300458780437e+01 -1.7492490374769312e+02 0 0 0
3151 127 3 0.0000000000000000e+00 -1.7480118707545966e+01 -2.1925331447398065e+01 -1.7528127913452860e+02 0 0 0
2228 90 2 0.0000000000000000e+00 2.7207416274246854e+00 -2.9345415071030153e+01 -1.7457188342591215e+02 0 0 0
2229 90 2 0.0000000000000000e+00 8.9008308355421555e+00 -3.2905264230875389e+01 -1.8134965231558800e+02 0 0 0
86 4 2 0.0000000000000000e+00 -5.0732547592962383e+01 -1.6377312473478138e+01 -1.7586267802875773e+02 0 0 0
87 4 2 0.0000000000000000e+00 -4.2911641968038232e+01 -9.9999597524715469e+00 -1.7416687023059791e+02 0 0 0
263 11 1 0.0000000000000000e+00 -2.6816768678448131e+01 -1.6371944461144867e+01 -1.7765542490831999e+02 0 0 0
3153 127 4 0.0000000000000000e+00 -1.2927129799100141e+00 -1.6167936631710290e+01 -1.7991961940727322e+02 0 0 0
3154 127 4 0.0000000000000000e+00 7.0567013812790425e+00 -1.1445366457248994e+01 -1.8056939514557840e+02 0 0 0
1415 57 2 0.0000000000000000e+00 -7.1858495606543983e+01 -6.8748924109238217e+01 -1.5996450429455913e+02 0 0 0
256 11 2 0.0000000000000000e+00 -3.2570063660746662e+01 -6.4391606155461545e+01 -1.6639601089832234e+02 0 0 0
3275 131 3 0.0000000000000000e+00 -3.4108852038525740e+01 -5.1287078264168599e+01 -1.6734954615180771e+02 0 0 0
3274 131 4 0.0000000000000000e+00 -2.6243969103019666e+01 -4.8570757673475811e+01 -1.6196381179805675e+02 0 0 0
829 34 2 0.0000000000000000e+00 -1.1699324426616638e+01 -5.0249349761341939e+01 -1.7191403110775300e+02 0 0 0
1424 57 2 0.0000000000000000e+00 -1.2130470321219092e+02 -3.6280384329781434e+01 -1.7218575759959742e+02 0 0 0
1422 57 2 0.0000000000000000e+00 -1.0494924644156332e+02 -3.8194278187877757e+01 -1.7150172708727041e+02 0 0 0
1421 57 2 0.0000000000000000e+00 -9.7445259620941471e+01 -3.4659536486059515e+01 -1.6582246693849405e+02 0 0 0
4384 176 4 0.0000000000000000e+00 -6.0363598847552566e+01 -4.0240518343789184e+01 -1.6507377292140575e+02 0 0 0
830 34 2 0.0000000000000000e+00 -9.9221722325467301e+00 -4.2387156321783479e+01 -1.6465986153091723e+02 0 0 0
1425 57 1 0.0000000000000000e+00 -1.2443953840336238e+02 -2.7060678944457386e+01 -1.6951294470131546e+02 0 0 0
83 4 2 0.0000000000000000e+00 -7.8571757627199872e+01 -2.2836469746795881e+01 -1.7212013649588158e+02 0 0 0
84 4 2 0.0000000000000000e+00 -6.8750861242623301e+01 -2.2832264022898858e+01 -1.7046796810791838e+02 0 0 0
4385 176 4 0.0000000000000000e+00 -6.7493623772433423e+01 -3.3691467414890397e+01 -1.6247802414534488e+02 0 0 0
831 34 2 0.0000000000000000e+00 -9.8341640339292979e+00 -3.2587158497578734e+01 -1.6207775671289409e+02 0 0 0
2227 90 2 0.0000000000000000e+00 3.2257984585171648e+00 -2.1821310445251601e+01 -1.6779018649748221e+02 0 0 0
81 4 2 0.0000000000000000e+00 -9.5126360761112053e+01 -1.9227054984865465e+01 -1.6383412024385029e+02 0 0 0
82 4 1 0.0000000000000000e+00 -8.6939405700428651e+01 -1.8070599769741239e+01 -1.6977812210891028e+02 0 0 0
4888 196 3 0.0000000000000000e+00 -8.0545246687490035e+01 -1.3766792447339055e+01 -1.6130391396795736e+02 0 0 0
85 4 2 0.0000000000000000e+00 -6.0047726182193351e+01 -1.8843436788690589e+01 -1.7256202564110203e+02 0 0 0
4258 171 4 0.0000000000000000e+00 -4.9954217626424025e+01 -1.3864277571463788e+01 -1.6605619023241366e+02 0 0 0
264 11 2 0.0000000000000000e+00 -2.7951779862510417e+01 -8.9138549059682823e+00 -1.7041283706169770e+02 0 0 0
88 4 1 0.0000000000000000e+00 -3.9882582501873095e+01 -7.0670764197714924e+00 -1.6493550615780018e+02 0 0 0
3152 127 4 0.0000000000000000e+00 -7.8940123587494933e+00 -2.0200673231561034e+01 -1.7285816903201345e+02 0 0 0
2226 90 1 0.0000000000000000e+00 8.7206462854425322e+00 -2.0061664518748927e+01 -1.5975602139429267e+02 0 0 0
2022 81 2 0.0000000000000000e+00 1.2386203384641526e+01 -1.0401264191177361e+01 -1.7230541141529952e+02 0 0 0
253 11 2 0.0000000000000000e+00 -4.6494656848698881e+01 -7.9942591693758047e+01 -1.4728330446251240e+02 0 0 0
1896 76 2 0.0000000000000000e+00 -1.5240397735308022e+01 -7.7321537857377450e+01 -1.5300901495393288e+02 0 0 0
1897 76 2 0.0000000000000000e+00 -7.8827741482467681e+00 -8.3277658117331256e+01 -1.5682216369651277e+02 0 0 0
1898 76 2 0.0000000000000000e+00 -1.7806523371372673e+00 -8.8204772241558388e+01 -1.4996022596817670e+02 0 0 0
1899 76 2 0.0000000000000000e+00 5.3145375100983685e+00 -8.2499901216694269e+01 -1.4629432648509899e+02 0 0 0
1413 57 1 0.0000000000000000e+00 -8.2560066469639111e+01 -7.0916180761874614e+01 -1.4710342811797253e+02 0 0 0
1414 57 2 0.0000000000000000e+00 -8.1380013085568621e+01 -7.1048654740424411e+01 -1.5697271832204046e+02 0 0 0
1416 57 2 0.0000000000000000e+00 -7.3957872263218007e+01 -6.3113985170680991e+01 -1.5275934481875419e+02 0 0 0
254 11 2 0.0000000000000000e+00 -4.3982419373074400e+01 -7.1102137344230783e+01 -1.5177164883061161e+02 0 0 0
255 11 2 0.0000000000000000e+00 -3.6955457179765972e+01 -6.8973345098688199e+01 -1.5849038343813118e+02 0 0 0
1895 76 2 0.0000000000000000e+00 -2.0297408960873810e+01 -7.0137424621762591e+01 -1.4754192584875679e+02 0 0 0
3014 121 4 0.0000000000000000e+00 -9.3695033593453090e+00 -6.5316926796498066e+01 -1.5603939191943186e+02 0 0 0
3015 121 4 0.0000000000000000e+00 -1.0516338293699854e+00 -6.8786127931317907e+01 -1.5946051728759861e+02 0 0 0
3016 121 4 0.0000000000000000e+00 6.5823027418155782e+00 -7.3172945204669844e+01 -1.5652803763974686e+02 0 0 0
1417 57 2 0.0000000000000000e+00 -8.0811555551344824e+01 -5.9159875236764996e+01 -1.4607971376307168e+02 0 0 0
4382 176 3 0.0000000000000000e+00 -5.2648110496832686e+01 -5.1700467108853431e+01 -1.5156261185978298e+02 0 0 0
3011 121 4 0.0000000000000000e+00 -3.1764576490816491e+01 -6.0490697582274791e+01 -1.4698449414827977e+02 0 0 0
3012 121 4 0.0000000000000000e+00 -2.4101075449620247e+01 -5.4717624023936132e+01 -1.4785554261791233e+02 0 0 0
3013 121 3 0.0000000000000000e+00 -1.7601150001116647e+01 -6.1340327914019376e+01 -1.5170302705128938e+02 0 0 0
1419 57 1 0.0000000000000000e+00 -8.7338738728188034e+01 -4.4214791670094534e+01 -1.5112833516035656e+02 0 0 0
1420 57 2 0.0000000000000000e+00 -9.2003824701556226e+01 -3.9936757104324101e+01 -1.5862222875797482e+02 0 0 0
4383 176 4 0.0000000000000000e+00 -5.7718475831810728e+01 -4.7919427318292328e+01 -1.5898195331636529e+02 0 0 0
3273 131 4 0.0000000000000000e+00 -1.8948024267354601e+01 -4.7035654523985286e+01 -1.5530454954233940e+02 0 0 0
3272 131 4 0.0000000000000000e+00 -1.0703133252652343e+01 -4.0533846932278834e+01 -1.5557553677376364e+02 0 0 0
3271 131 4 0.0000000000000000e+00 -8.1911465068818090e-01 -3.7438441475050524e+01 -1.5766964068285296e+02 0 0 0
80 4 2 0.0000000000000000e+00 -9.8313832579892889e+01 -2.4834537772370311e+01 -1.5593533066424180e+02 0 0 0
79 4 2 0.0000000000000000e+00 -1.0354385449176834e+02 -2.4827972505808084e+01 -1.4716328638566475e+02 0 0 0
4387 176 4 0.0000000000000000e+00 -8.3854885223502791e+01 -3.4289523029480314e+01 -1.5147182331325351e+02 0 0 0
4887 196 4 0.0000000000000000e+00 -8.1896254111436591e+01 -2.1116272799229897e+01 -1.5514349706928274e+02 0 0 0
4386 176 4 0.0000000000000000e+00 -7.4557959802371485e+01 -3.3738463579295519e+01 -1.5497357999717576e+02 0 0 0
833 34 2 0.0000000000000000e+00 -1.9521781657282261e+01 -3.1000997438607765e+01 -1.5354323429549805e+02 0 0 0
832 34 1 0.0000000000000000e+00 -1.0443594433659317e+01 -2.7062071861811827e+01 -1.5383507228284503e+02 0 0 0
3262 131 4 0.0000000000000000e+00 -6.5390032057144003e+00 -3.4402413486641727e+01 -1.4846614265274494e+02 0 0 0
3270 131 4 0.0000000000000000e+00 6.0806903743871148e+00 -3.0404544754607763e+01 -1.5407938785251650e+02 0 0 0
4260 171 4 0.0000000000000000e+00 -4.6717460468112392e+01 -1.5357702083105329e+01 -1.4688707603973745e+02 0 0 0
4259 171 4 0.0000000000000000e+00 -4.8762992541987721e+01 -1.6770374706292689e+01 -1.5699130632241085e+02 0 0 0
4870 195 4 0.0000000000000000e+00 1.0161468710484217e+01 -9.1955263763482264e+01 -1.4360883595071158e+02 0 0 0
252 11 2 0.0000000000000000e+00 -4.0475190500838316e+01 -8.5648476011590347e+01 -1.4083960035944975e+02 0 0 0
251 11 1 0.0000000000000000e+00 -3.0811855029476170e+01 -8.8881429933534051e+01 -1.3991949428036853e+02 0 0 0
4868 195 4 0.0000000000000000e+00 9.3016617219489763e+00 -7.6480786771546391e+01 -1.3334595256872896e+02 0 0 0
4376 176 3 0.0000000000000000e+00 -9.0886794680894269e+01 -6.8241255591241767e+01 -1.3977838679015662e+02 0 0 0
1412 57 2 0.0000000000000000e+00 -7.9326567374978552e+01 -7.3310935812253518e+01 -1.3715872477776628e+02 0 0 0
1894 76 1 0.0000000000000000e+00 -2.2124422031001128e+01 -6.1884509081565525e+01 -1.4172983366254508e+02 0 0 0
4377 176 4 0.0000000000000000e+00 -8.6032865608289526e+01 -6.1703522454632626e+01 -1.3516330455651905e+02 0 0 0
1418 57 2 0.0000000000000000e+00 -8.7480777458632872e+01 -5.1792131312873508e+01 -1.4398707385971741e+02 0 0 0
4380 176 4 0.0000000000000000e+00 -6.3440272404081810e+01 -5.2228161043721506e+01 -1.3455343539085979e+02 0 0 0
4381 176 4 0.0000000000000000e+00 -5.6478830364326882e+01 -5.2370340617239627e+01 -1.4231385907353450e+02 0 0 0
3010 121 4 0.0000000000000000e+00 -3.4977512751829799e+01 -5.8753252883648344e+01 -1.3758013801724408e+02 0 0 0
1893 76 2 0.0000000000000000e+00 -1.9979216203653134e+01 -5.9445470889835725e+01 -1.3256200964792237e+02 0 0 0
4388 176 3 0.0000000000000000e+00 -8.5663924855141644e+01 -3.7896827448340325e+01 -1.4262400651855850e+02 0 0 0
4389 176 4 0.0000000000000000e+00 -8.9450729234603372e+01 -4.3554633868925215e+01 -1.3522452244870624e+02 0 0 0
835 34 2 0.0000000000000000e+00 -2.2992118447300328e+01 -4.0628899226356474e+01 -1.3811378227122307e+02 0 0 0
3260 131 4 0.0000000000000000e+00 9.3599613871062548e+00 -3.9651496497229608e+01 -1.3885365366268778e+02 0 0 0
3261 131 4 0.0000000000000000e+00 8.6200217374632526e-01 -4.0212659182175955e+01 -1.4391551995505392e+02 0 0 0
78 4 2 0.0000000000000000e+00 -9.8532103150489490e+01 -2.9326444844424657e+01 -1.3976347297935328e+02 0 0 0
4886 196 4 0.0000000000000000e+00 -7.8711804574950904e+01 -2.2296852666361076e+01 -1.4550461820674974e+02 0 0 0
834 34 2 0.0000000000000000e+00 -2.3605619160772932e+01 -3.3471822632354083e+01 -1.4405401048653076e+02 0 0 0
3263 131 3 0.0000000000000000e+00 -1.2716489930213612e+01 -2.8334200142749719e+01 -1.4305811365496083e+02 0 0 0
4885 196 4 0.0000000000000000e+00 -8.3653440222851899e+01 -1.5510983049944370e+01 -1.4040584598859760e+02 0 0 0
4261 171 4 0.0000000000000000e+00 -4.3562503946516898e+01 -1.4042156170178448e+01 -1.3743978288767991e+02 0 0 0
3264 131 4 0.0000000000000000e+00 -1.1378015219572903e+01 -1.9151685243932608e+01 -1.3978341338478421e+02 0 0 0
3265 131 4 0.0000000000000000e+00 -3.2986887354939949e+00 -1.3975596102954000e+01 -1.4285256043653430e+02 0 0 0
3266 131 4 0.0000000000000000e+00 5.2596039838666275e+00 -9.3492800967811096e+00 -1.4467519446263859e+02 0 0 0
3001 121 3 0.0000000000000000e+00 -3.0107532551132408e+01 -9.4019616463495893e+01 -1.3039964000837205e+02 0 0 0
3003 121 4 0.0000000000000000e+00 -3.5838549066065610e+01 -9.1346062472711779e+01 -1.2011939155412504e+02 0 0 0
1410 57 2 0.0000000000000000e+00 -6.9211235389166262e+01 -7.6872299646098725e+01 -1.2140828857141015e+02 0 0 0
3004 121 4 0.0000000000000000e+00 -4.3838615307813662e+01 -8.6270164719928502e+01 -1.1875840112696963e+02 0 0 0
3002 121 4 0.0000000000000000e+00 -2.8312044783705591e+01 -8.6358252772187953e+01 -1.2373424487513752e+02 0 0 0
4867 195 4 0.0000000000000000e+00 1.1723692489958767e+01 -8.0948133437885872e+01 -1.2454638682503493e+02 0 0 0
1411 57 2 0.0000000000000000e+00 -7.2972122255346392e+01 -7.2065469960553600e+01 -1.2921217371744720e+02 0 0 0
3009 121 4 0.0000000000000000e+00 -3.4087410778077690e+01 -6.4661796380362304e+01 -1.2936548321061466e+02 0 0 0
3008 121 4 0.0000000000000000e+00 -3.3676286305548977e+01 -6.5054784910246823e+01 -1.1927611556444481e+02 0 0 0
2158 87 2 0.0000000000000000e+00 -1.0768208314553869e+01 -6.7057455771236093e+01 -1.2080340322792574e+02 0 0 0
2157 87 1 0.0000000000000000e+00 -2.3066930944960191e+00 -6.2170291326991425e+01 -1.2387702460507327e+02 0 0 0
2156 87 2 0.0000000000000000e+00 5.7448256189497275e+00 -6.4522490253793492e+01 -1.2984095171163727e+02 0 0 0
4378 176 4 0.0000000000000000e+00 -7.8365740677835021e+01 -6.1678264672669492e+01 -1.2806264153458244e+02 0 0 0
4379 176 4 0.0000000000000000e+00 -6.9310187023334279e+01 -5.6577352305516087e+01 -1.2795398186585236e+02 0 0 0
1892 76 2 0.0000000000000000e+00 -1.9354433858696222e+01 -5.6018890030339250e+01 -1.2278831854995542e+02 0 0 0
837 34 2 0.0000000000000000e+00 -2.5664372418050622e+01 -4.8192557923830961e+01 -1.2200044622155869e+02 0 0 0
4390 176 4 0.0000000000000000e+00 -8.4518019010547093e+01 -4.6690899206198992e+01 -1.2767798930016396e+02 0 0 0
1000 40 1 0.0000000000000000e+00 -6.7522461296381621e+01 -3.4938235467061659e+01 -1.2396812330978700e+02 0 0 0
4879 196 4 0.0000000000000000e+00 -4.1639396340719991e+01 -3.5742876800078932e+01 -1.2288360940265123e+02 0 0 0
836 34 2 0.0000000000000000e+00 -2.1013042417962701e+01 -4.7461359495707789e+01 -1.3119107781629455e+02 0 0 0
76 4 1 0.0000000000000000e+00 -9.5691807295594018e+01 -2.2166916477271581e+01 -1.2252199045012935e+02 0 0 0
77 4 2 0.0000000000000000e+00 -9.4158761156199560e+01 -2.5780393354691139e+01 -1.3173084603043912e+02 0 0 0
999 40 2 0.0000000000000000e+00 -6.4777444778081062e+01 -2.7874088416963254e+01 -1.3023884489340332e+02 0 0 0
4878 196 4 0.0000000000000000e+00 -3.2522543709724545e+01 -3.0703291899967283e+01 -1.2291791135509723e+02 0 0 0
3221 129 4 0.0000000000000000e+00 -3.2391725254793573e+00 -2.1858745788532648e+01 -1.3155622962262419e+02 0 0 0
3220 129 4 0.0000000000000000e+00 3.6337238253882713e+00 -2.5855533605699655e+01 -1.2623652805120804e+02 0 0 0
4749 190 4 0.0000000000000000e+00 -9.9465909443834917e+01 -8.9357176075812301e+00 -1.2980560093014640e+02 0 0 0
4750 190 3 0.0000000000000000e+00 -1.0486571648505652e+02 -1.6329675188091183e+01 -1.2526249344237986e+02 0 0 0
4884 196 4 0.0000000000000000e+00 -7.7712447180083672e+01 -1.4874748471865400e+01 -1.3184150659758521e+02 0 0 0
4883 196 4 0.0000000000000000e+00 -7.1297636705707745e+01 -1.8268635700039166e+01 -1.2504064702927346e+02 0 0 0
998 40 2 0.0000000000000000e+00 -5.8093610081242460e+01 -2.0105057390964458e+01 -1.2760610582572201e+02 0 0 0
997 40 2 0.0000000000000000e+00 -5.9846969045404862e+01 -1.3338680467047700e+01 -1.2043922158708683e+02 0 0 0
4262 171 4 0.0000000000000000e+00 -4.1245215054437324e+01 -1.7724657709000056e+01 -1.2855438492857465e+02 0 0 0
4263 171 3 0.0000000000000000e+00 -3.4450258839464908e+01 -1.1781700737608984e+01 -1.2538339978653312e+02 0 0 0
601 25 1 0.0000000000000000e+00 -2.5438415550267536e+01 -1.5577254704328746e+01 -1.2904713857041699e+02 0 0 0
602 25 2 0.0000000000000000e+00 -1.8020963794806416e+01 -1.8294192054102094e+01 -1.2292651937421681e+02 0 0 0
3222 129 4 0.0000000000000000e+00 -6.3016908699978984e+00 -1.2311086109137193e+01 -1.3166953002551818e+02 0 0 0
604 25 2 0.0000000000000000e+00 -2.5451710857605470e+00 -1.6547402719590291e+01 -1.2187927933801389e+02 0 0 0
605 25 2 0.0000000000000000e+00 4.3666465147930005e+00 -1.3338504151613209e+01 -1.2790511557664587e+02 0 0 0
606 25 2 0.0000000000000000e+00 1.2833312253761141e+01 -1.7968023884015011e+01 -1.2978615233574192e+02 0 0 0
2798 112 4 0.0000000000000000e+00 -1.6956014513181476e+01 -1.1514908491336922e+02 -1.1182318380251917e+02 0 0 0
2799 112 4 0.0000000000000000e+00 -1.4603397377517005e+01 -1.0756154670455321e+02 -1.0568738300332760e+02 0 0 0
1408 57 2 0.0000000000000000e+00 -6.8459095937609874e+01 -9.5115128272211820e+01 -1.1314415626226642e+02 0 0 0
1407 57 1 0.0000000000000000e+00 -7.6836037690838111e+01 -9.8854983332144769e+01 -1.0866270624923324e+02 0 0 0
2800 112 3 0.0000000000000000e+00 -1.1350527919122856e+01 -9.8265964407686752e+01 -1.0518160707474651e+02 0 0 0
4865 195 4 0.0000000000000000e+00 1.1307640995236007e+01 -8.9226840618138965e+01 -1.0852670794557376e+02 0 0 0
1409 57 2 0.0000000000000000e+00 -6.7837419024815688e+01 -8.5603110137801252e+01 -1.1713104116989128e+02 0 0 0
3005 121 4 0.0000000000000000e+00 -4.4729816365924776e+01 -7.6329967176874035e+01 -1.1732926614959580e+02 0 0 0
2160 87 2 0.0000000000000000e+00 -2.4908082160939816e+01 -7.7702249469293562e+01 -1.1754030950243724e+02 0 0 0
2161 87 2 0.0000000000000000e+00 -2.6490511671810221e+01 -8.0657220854827514e+01 -1.0749246160277619e+02 0 0 0
3006 121 4 0.0000000000000000e+00 -4.7938090366301701e+01 -6.7849966641075355e+01 -1.1243232110629333e+02 0 0 0
3007 121 3 0.0000000000000000e+00 -3.8189212103175045e+01 -6.6608002654196142e+01 -1.1073432702311641e+02 0 0 0
2159 87 2 0.0000000000000000e+00 -1.5478370686521380e+01 -7.5268998684265995e+01 -1.1760879378110735e+02 0 0 0
4851 195 3 0.0000000000000000e+00 -5.5457412078926529e+00 -6.4201413507614987e+01 -1.1242791544408345e+02 0 0 0
4392 176 4 0.0000000000000000e+00 -8.4676381428686398e+01 -4.9223119770868806e+01 -1.0952225398191031e+02 0 0 0
675 27 1 0.0000000000000000e+00 -3.4727419441791376e+01 -5.6749969876090667e+01 -1.1396490712390650e+02 0 0 0
1891 76 2 0.0000000000000000e+00 -1.7436236438431642e+01 -5.7215938986443867e+01 -1.1284746672240895e+02 0 0 0
839 34 2 0.0000000000000000e+00 -2.5866648405152798e+01 -5.2851634737079372e+01 -1.0510953823265980e+02 0 0 0
1736 70 2 0.0000000000000000e+00 -7.2124552436145821e+00 -5.3201288067744990e+01 -1.1582847285187651e+02 0 0 0
1890 76 2 0.0000000000000000e+00 -1.0211721892891022e+01 -5.5420006632585554e+01 -1.0556965195925230e+02 0 0 0
1734 70 2 0.0000000000000000e+00 1.1790161443579724e+01 -5.5948506056914866e+01 -1.1351334170065209e+02 0 0 0
4852 195 4 0.0000000000000000e+00 1.7520156972360907e+00 -6.1625976805962232e+01 -1.0542896576975852e+02 0 0 0
1735 70 2 0.0000000000000000e+00 2.0806001910171976e+00 -5.7960137742949733e+01 -1.1628527172401610e+02 0 0 0
4391 176 4 0.0000000000000000e+00 -8.1424011467563346e+01 -4.5629953592275626e+01 -1.1803013723705223e+02 0 0 0
4825 193 3 0.0000000000000000e+00 -7.6978888528096917e+01 -3.7136441426840115e+01 -1.0723766346384841e+02 0 0 0
4876 196 3 0.0000000000000000e+00 -2.9804652528059822e+01 -3.9824881734711241e+01 -1.0610414762174199e+02 0 0 0
838 34 1 0.0000000000000000e+00 -2.4111662673148739e+01 -4.6432923746221036e+01 -1.1224963745874389e+02 0 0 0
1737 70 2 0.0000000000000000e+00 -1.3750268504282117e+01 -4.6487513743275372e+01 -1.1651568094422873e+02 0 0 0
1738 70 1 0.0000000000000000e+00 -1.3515849469245596e+01 -3.6586534473661104e+01 -1.1745013811704503e+02 0 0 0
1732 70 1 0.0000000000000000e+00 1.2154732760465249e+01 -3.6753440648157820e+01 -1.1052028503330936e+02 0 0 0
597 24 2 0.0000000000000000e+00 -1.0656455929331595e+02 -2.7160729558726985e+01 -1.0940746158123336e+02 0 0 0
598 24 2 0.0000000000000000e+00 -9.6246406980252360e+01 -3.0672994093535156e+01 -1.1066664688179985e+02 0 0 0
599 24 2 0.0000000000000000e+00 -8.6514156669226367e+01 -3.2898728341799917e+01 -1.1019864339216514e+02 0 0 0
600 24 1 0.0000000000000000e+00 -7.8242068417226378e+01 -2.6316783320395107e+01 -1.1096350956792753e+02 0 0 0
4881 196 4 0.0000000000000000e+00 -5.9280195001224449e+01 -3.1667416920230256e+01 -1.1598030012435909e+02 0 0 0
4882 196 3 0.0000000000000000e+00 -6.5919442766529244e+01 -2.4398164856484176e+01 -1.1850380567543540e+02 0 0 0
4880 196 4 0.0000000000000000e+00 -4.9969495878010733e+01 -3.3450307954353583e+01 -1.1763764666573783e+02 0 0 0
4877 196 4 0.0000000000000000e+00 -2.8568343289810723e+01 -3.3954395408900346e+01 -1.1429863482353122e+02 0 0 0
1739 70 2 0.0000000000000000e+00 -7.8311297050407820e+00 -2.8236195202519472e+01 -1.1645699406850939e+02 0 0 0
4275 171 3 0.0000000000000000e+00 -1.2567789052942071e+01 -3.3870787084489841e+01 -1.0666690152661684e+02 0 0 0
4274 171 4 0.0000000000000000e+00 -1.2083099374645833e+01 -2.4285164439879150e+01 -1.0772998770591781e+02 0 0 0
1740 70 2 0.0000000000000000e+00 -1.2295518335185240e+00 -2.1326636827284677e+01 -1.1357774080290356e+02 0 0 0
596 24 2 0.0000000000000000e+00 -1.1401773653603085e+02 -1.9667053518571763e+01 -1.1078863452906560e+02 0 0 0
595 24 2 0.0000000000000000e+00 -1.1539936609816368e+02 -1.0985423053421599e+01 -1.0653770416132973e+02 0 0 0
1746 70 2 0.0000000000000000e+00 -5.0195569350265160e+01 -1.0997715667671304e+01 -1.0508604713212577e+02 0 0 0
1744 70 1 0.0000000000000000e+00 -3.2422307959163128e+01 -8.0198198481148264e+00 -1.0799525580821212e+02 0 0 0
1743 70 2 0.0000000000000000e+00 -2.3545566996039657e+01 -1.3137036462815017e+01 -1.0752078379624751e+02 0 0 0
1741 70 2 0.0000000000000000e+00 -4.9697726989940314e+00 -1.2858705426506765e+01 -1.1100466518105696e+02 0 0 0
603 25 2 0.0000000000000000e+00 -1.0272868606708343e+01 -1.8815557415098759e+01 -1.1663495949903047e+02 0 0 0
1742 70 2 0.0000000000000000e+00 -1.3717679912042668e+01 -1.1780999887272509e+01 -1.0672241598840839e+02 0 0 0
3216 129 4 0.0000000000000000e+00 6.6990389538352249e+00 -1.0584078513987313e+01 -1.1210349685372834e+02 0 0 0
1829 74 2 0.0000000000000000e+00 9.3646251557353022e+00 -1.6508973172669164e+02 -9.4598276072919830e+01 0 0 0
2797 112 4 0.0000000000000000e+00 -1.6945637208486509e+01 -1.2222722413542827e+02 -1.0486146253277965e+02 0 0 0
2796 112 4 0.0000000000000000e+00 -1.1691376839129408e+01 -1.1802006586840788e+02 -9.7719869915850609e+01 0 0 0
2795 112 4 0.0000000000000000e+00 -4.5319879958638385e+00 -1.2546356452645330e+02 -9.3944203757839162e+01 0 0 0
2794 112 3 0.0000000000000000e+00 5.0684710130206687e+00 -1.2873748012154971e+02 -9.2572103610260143e+01 0 0 0
1406 57 2 0.0000000000000000e+00 -8.1596733026999601e+01 -1.0468928831689709e+02 -1.0154102795001251e+02 0 0 0
1405 57 2 0.0000000000000000e+00 -7.4983121121286445e+01 -1.1254844418232358e+02 -9.9528695610341373e+01 0 0 0
1404 57 2 0.0000000000000000e+00 -6.8307703108893548e+01 -1.1174426868110756e+02 -9.2279224590740696e+01 0 0 0
2163 87 1 0.0000000000000000e+00 -1.9434609300938121e+01 -9.6155939145353358e+01 -9.7302981947639083e+01 0 0 0
2164 87 2 0.0000000000000000e+00 -1.0032334683712925e+01 -9.8636084405126525e+01 -9.3539636345669777e+01 0 0 0
525 21 1 0.0000000000000000e+00 -1.1920110871283629e+02 -7.7041554750183423e+01 -9.5684606462676797e+01 0 0 0
524 21 2 0.0000000000000000e+00 -1.0908118518493139e+02 -7.8394101843484322e+01 -9.4306606132742701e+01 0 0 0
523 21 2 0.0000000000000000e+00 -9.8570721286271493e+01 -7.9124701595603014e+01 -9.3928717178305106e+01 0 0 0
522 21 2 0.0000000000000000e+00 -9.0104526629158158e+01 -8.3610251582602530e+01 -9.7558234203071649e+01 0 0 0
521 21 2 0.0000000000000000e+00 -8.2091867709753672e+01 -8.8790110845194803e+01 -9.4148225361988310e+01 0 0 0
3653 147 4 0.0000000000000000e+00 -5.2350448230838751e+01 -8.4428795270587614e+01 -9.2437984613944565e+01 0 0 0
2162 87 2 0.0000000000000000e+00 -2.3554086075103797e+01 -8.8243421512589975e+01 -1.0107259919228058e+02 0 0 0
843 34 2 0.0000000000000000e+00 -1.0105414134039981e+01 -8.3134779527975340e+01 -9.2596873648719537e+01 0 0 0
842 34 2 0.0000000000000000e+00 -9.0070943796424014e+00 -7.4028283463356445e+01 -9.5165361248599240e+01 0 0 0
841 34 2 0.0000000000000000e+00 -1.0497672207004550e+01 -6.5099259789077280e+01 -9.9255257724641922e+01 0 0 0
4853 195 4 0.0000000000000000e+00 1.1490940957939694e+01 -6.2286677624122824e+01 -1.0262253191313626e+02 0 0 0
1927 78 2 0.0000000000000000e+00 -1.2846423891631866e+02 -5.4553245848319442e+01 -9.2959049589676482e+01 0 0 0
1926 78 1 0.0000000000000000e+00 -1.1856829544459279e+02 -5.1624446757405344e+01 -9.5173726274321126e+01 0 0 0
674 27 2 0.0000000000000000e+00 -3.6557284900858747e+01 -5.3814839351067747e+01 -1.0441504412893964e+02 0 0 0
673 27 2 0.0000000000000000e+00 -3.9686879866549504e+01 -5.4003338577940319e+01 -9.4706760805773015e+01 0 0 0
840 34 2 0.0000000000000000e+00 -1.8110653645715274e+01 -5.9111078459194879e+01 -1.0283237625505703e+02 0 0 0
1889 76 2 0.0000000000000000e+00 -1.0117412984030041e+01 -4.9293618275353843e+01 -9.7515710976449185e+01 0 0 0
651 27 1 0.0000000000000000e+00 1.1855471374548983e+01 -5.0474774516866979e+01 -9.5274117861945498e+01 0 0 0
3061 123 4 0.0000000000000000e+00 -1.1361351003668857e+02 -3.6727889015284013e+01 -1.0065144709378468e+02 0 0 0
4393 176 4 0.0000000000000000e+00 -8.9094803927564257e+01 -4.6071976495658703e+01 -1.0095058460592244e+02 0 0 0
4394 176 3 0.0000000000000000e+00 -8.7484609399173479e+01 -3.9995372998086047e+01 -9.2558123934947432e+01 0 0 0
4824 193 4 0.0000000000000000e+00 -7.3128631692653599e+01 -4.1884521297117857e+01 -9.9371867790070255e+01 0 0 0
666 27 2 0.0000000000000000e+00 -5.9843196517720351e+01 -3.6523170405377080e+01 -9.7853822695609821e+01 0 0 0
667 27 2 0.0000000000000000e+00 -5.8517862997133051e+01 -4.4464594872726764e+01 -9.2184601042519162e+01 0 0 0
661 27 2 0.0000000000000000e+00 -2.3375662285891067e+01 -4.4281808701726121e+01 -9.2919714858000376e+01 0 0 0
662 27 2 0.0000000000000000e+00 -2.4054969038970004e+01 -3.4767793327855799e+01 -9.3963428341281968e+01 0 0 0
3060 123 4 0.0000000000000000e+00 -1.2118768091174422e+02 -3.0363371983056062e+01 -1.0150646383669230e+02 0 0 0
2281 92 2 0.0000000000000000e+00 -1.1346084151469877e+02 -2.9266347561240647e+01 -9.1454009467515220e+01 0 0 0
2280 92 2 0.0000000000000000e+00 -1.0514074755805545e+02 -2.8561526727973874e+01 -9.6771461130673316e+01 0 0 0
2279 92 2 0.0000000000000000e+00 -9.5669357287016055e+01 -2.9160879512155326e+01 -9.8795324473922605e+01 0 0 0
2278 92 2 0.0000000000000000e+00 -9.5101378866565057e+01 -2.0803188421095221e+01 -9.2591411665801644e+01 0 0 0
4396 176 4 0.0000000000000000e+00 -8.4585570701439423e+01 -2.1013623745268557e+01 -9.1691893645498311e+01 0 0 0
1750 70 1 0.0000000000000000e+00 -7.9690085834460248e+01 -3.2531064972510364e+01 -9.6095734018064945e+01 0 0 0
1749 70 2 0.0000000000000000e+00 -7.0638622281521108e+01 -3.0086497988045984e+01 -1.0083239627315430e+02 0 0 0
1748 70 2 0.0000000000000000e+00 -6.2021604521894744e+01 -2.6631948332794046e+01 -1.0499725249730417e+02 0 0 0
665 27 2 0.0000000000000000e+00 -5.1097372385871530e+01 -3.2451712262459267e+01 -1.0068107832542250e+02 0 0 0
664 27 2 0.0000000000000000e+00 -4.1297869358845553e+01 -3.3601483916527357e+01 -1.0277231823442007e+02 0 0 0
663 27 1 0.0000000000000000e+00 -3.2618767428091694e+01 -3.1049769370117566e+01 -9.7981820316092623e+01 0 0 0
3875 155 3 0.0000000000000000e+00 -2.7007540478136804e+01 -2.3710665002285793e+01 -9.1513375545685960e+01 0 0 0
1730 70 2 0.0000000000000000e+00 4.9573868020759724e+00 -2.4921556916921336e+01 -9.5053845889478580e+01 0 0 0
1731 70 2 0.0000000000000000e+00 8.2135747342652827e+00 -3.1288577209062726e+01 -1.0315863956848938e+02 0 0 0
3059 123 4 0.0000000000000000e+00 -1.2225410398580473e+02 -2.0623164687284543e+01 -1.0110859356185583e+02 0 0 0
3058 123 4 0.0000000000000000e+00 -1.2134119371404051e+02 -1.1246164618397186e+01 -9.8768789716690179e+01 0 0 0
3057 123 3 0.0000000000000000e+00 -1.1235709094820656e+02 -1.1872963114299356e+01 -9.3657240984230015e+01 0 0 0
4397 176 4 0.0000000000000000e+00 -8.0939957115359078e+01 -1.6776753048971589e+01 -1.0037727952508206e+02 0 0 0
4398 176 4 0.0000000000000000e+00 -7.2108949575514956e+01 -1.4446002465947343e+01 -1.0344871377592321e+02 0 0 0
4399 176 4 0.0000000000000000e+00 -6.2859711159766427e+01 -1.2414820559265813e+01 -9.9185202059547777e+01 0 0 0
1747 70 2 0.0000000000000000e+00 -5.4186152984924441e+01 -2.0475192791928787e+01 -1.0411759605079315e+02 0 0 0
3874 155 4 0.0000000000000000e+00 -2.4951635545676503e+01 -1.5128491124704700e+01 -9.6213886914531869e+01 0 0 0
3873 155 4 0.0000000000000000e+00 -1.6528150137419118e+01 -1.0199055587285029e+01 -9.6785075386293613e+01 0 0 0
4273 171 4 0.0000000000000000e+00 -6.4963248550852795e+00 -1.8716880200295876e+01 -1.0130416951777048e+02 0 0 0
4272 171 4 0.0000000000000000e+00 -9.6562148219323263e-01 -1.0806340099336758e+01 -9.8171876352989031e+01 0 0 0
622 25 2 0.0000000000000000e+00 7.0078299536147393e+00 -1.3596191861225259e+01 -9.3595195965659229e+01 0 0 0
621 25 2 0.0000000000000000e+00 5.9950437756764403e+00 -1.6246085389543293e+01 -1.0341599571261438e+02 0 0 0
1831 74 2 0.0000000000000000e+00 1.2469458778889585e+01 -1.4739528134175296e+02 -8.9648843042650938e+01 0 0 0