LAMMPS data file via write_data, version 5 Jun 2019, timestep = 400000000

5000 atoms
4 atom types
5214 bonds
3 bond types
4600 angles
2 angle types

-5.0000000000000000e+02 5.0000000000000000e+02 xlo xhi
-5.0000000000000000e+02 5.0000000000000000e+02 ylo yhi
-5.0000000000000000e+02 5.0000000000000000e+02 zlo zhi

Masses

1 1000
2 1000
3 1000
4 1000

Pair Coeffs # lj/cut

1 0.18 10
2 0.18 10
3 0.18 10
4 0.18 10

Bond Coeffs # harmonic

1 3 10
2 3 10
3 1.8 11.22

Angle Coeffs # cosine

1 2
2 2

Atoms # full

3261 131 4 0.0000000000000000e+00 -9.5777590652650971e+01 -1.8024117648441749e+01 -2.4613409774405099e+02 0 0 0
3262 131 4 0.0000000000000000e+00 -9.4013047972309465e+01 -8.9354138797129146e+00 -2.5036893037250283e+02 0 0 0
2226 90 1 0.0000000000000000e+00 -8.4531775224193211e+01 -1.0344792494010393e+01 -2.4525009818596374e+02 0 0 0
3263 131 3 0.0000000000000000e+00 -8.9736133306091816e+01 -4.7598770638341215e-01 -2.4688538496571641e+02 0 0 0
3258 131 4 0.0000000000000000e+00 -1.0029346538234100e+02 -3.4720393224448955e+01 -2.2648046612894444e+02 0 0 0
3260 131 4 0.0000000000000000e+00 -1.0335559560034521e+02 -2.0196545118001648e+01 -2.3934885523805664e+02 0 0 0
3259 131 4 0.0000000000000000e+00 -1.0145002245364692e+02 -2.8949902566134714e+01 -2.3479406826676109e+02 0 0 0
2142 86 2 0.0000000000000000e+00 -7.9416945103515374e+01 -2.9629298007387476e+01 -2.2697676539071878e+02 0 0 0
2141 86 2 0.0000000000000000e+00 -6.9841686407582188e+01 -2.6855208711307927e+01 -2.2824004201183885e+02 0 0 0
2140 86 2 0.0000000000000000e+00 -6.0196015428400386e+01 -2.8407877773174391e+01 -2.2733998584497547e+02 0 0 0
2139 86 2 0.0000000000000000e+00 -5.0569157209688072e+01 -3.2664746460536222e+01 -2.2738829859037216e+02 0 0 0
2227 90 2 0.0000000000000000e+00 -7.6585671060465685e+01 -8.0024747798798579e+00 -2.3943846717952871e+02 0 0 0
2228 90 2 0.0000000000000000e+00 -6.6116430173490784e+01 -8.7563102781533146e+00 -2.3740383196437523e+02 0 0 0
3264 131 4 0.0000000000000000e+00 -8.5349943633876677e+01 1.2038741318142849e+00 -2.3752516007917191e+02 0 0 0
3265 131 4 0.0000000000000000e+00 -8.7218151339354236e+01 -5.1219989894245510e-01 -2.2805530690383753e+02 0 0 0
2229 90 2 0.0000000000000000e+00 -6.7088511574792477e+01 -3.1233804629921109e+00 -2.2891990643128111e+02 0 0 0
2457 99 1 0.0000000000000000e+00 4.0965407216163086e+01 6.6922600172338900e+00 -2.3180348395780257e+02 0 0 0
2456 99 2 0.0000000000000000e+00 4.8808670968233805e+01 5.1524131206508947e+00 -2.3715805052193298e+02 0 0 0
4901 197 3 0.0000000000000000e+00 3.8553656582188104e+01 1.6969588665294634e+01 -2.3242105341930210e+02 0 0 0
3256 131 4 0.0000000000000000e+00 -9.6773108246472034e+01 -4.9222213766485488e+01 -2.1392445312706690e+02 0 0 0
3257 131 3 0.0000000000000000e+00 -9.7583745397802488e+01 -4.0763121981231443e+01 -2.1910788428052973e+02 0 0 0
2138 86 1 0.0000000000000000e+00 -4.6789697988851970e+01 -3.6485219699506750e+01 -2.1880791948453813e+02 0 0 0
2143 86 2 0.0000000000000000e+00 -8.4738011267741442e+01 -3.1781905486586094e+01 -2.1844354966142927e+02 0 0 0
3275 131 3 0.0000000000000000e+00 -7.1058235048702969e+01 -3.1005573510810478e+01 -2.1767371241338930e+02 0 0 0
3267 131 4 0.0000000000000000e+00 -7.8086288880936237e+01 -1.4562997350854101e+01 -2.2274054721085250e+02 0 0 0
625 25 1 0.0000000000000000e+00 -7.9476468916546608e+01 -1.1181842387557205e+01 -2.1346759892803848e+02 0 0 0
3268 131 4 0.0000000000000000e+00 -6.8096432614167369e+01 -1.4987118775657940e+01 -2.2280700363897122e+02 0 0 0
3269 131 3 0.0000000000000000e+00 -6.8134889622186321e+01 -1.0737626758804174e+01 -2.1348088381772743e+02 0 0 0
3266 131 4 0.0000000000000000e+00 -8.3095458393899733e+01 -5.8869985603132644e+00 -2.2106800540372834e+02 0 0 0
2230 90 2 0.0000000000000000e+00 -6.6278040622082443e+01 3.6574851148895196e+00 -2.2164852004050928e+02 0 0 0
2231 90 2 0.0000000000000000e+00 -5.8065652649981786e+01 7.3116176217683124e+00 -2.1522133471263294e+02 0 0 0
2458 99 2 0.0000000000000000e+00 3.6268230515810870e+01 5.2947523147597995e+00 -2.2248604713350488e+02 0 0 0
2459 99 2 0.0000000000000000e+00 4.1269877413627668e+01 -8.9947785676117931e-01 -2.1579444742226062e+02 0 0 0
4902 197 4 0.0000000000000000e+00 4.1651292371715641e+01 1.4126225181947126e+01 -2.2328596435363133e+02 0 0 0
4903 197 4 0.0000000000000000e+00 4.7825084164637936e+01 9.2023975768486697e+00 -2.1656515940355874e+02 0 0 0
3255 131 4 0.0000000000000000e+00 -8.8755300949784399e+01 -5.4995201291149385e+01 -2.1043406377072509e+02 0 0 0
3254 131 4 0.0000000000000000e+00 -7.8716383125308312e+01 -5.4211725379456439e+01 -2.0931254657316870e+02 0 0 0
2144 86 1 0.0000000000000000e+00 -8.9275413054433969e+01 -3.7315394758818051e+01 -2.1133301124901433e+02 0 0 0
2145 86 2 0.0000000000000000e+00 -9.5246866493563232e+01 -4.0500860346003158e+01 -2.0445052322580355e+02 0 0 0
3253 131 4 0.0000000000000000e+00 -7.2534582530644045e+01 -4.5799882056213335e+01 -2.0896458326791338e+02 0 0 0
3252 131 4 0.0000000000000000e+00 -6.4600576525972258e+01 -4.0816983573944420e+01 -2.1057326291090573e+02 0 0 0
623 25 2 0.0000000000000000e+00 -8.3262996860222330e+01 -2.7904775369036834e+01 -2.0306113982938669e+02 0 0 0
3274 131 4 0.0000000000000000e+00 -7.5592437107973566e+01 -2.5810451502313196e+01 -2.1070176020054555e+02 0 0 0
3273 131 4 0.0000000000000000e+00 -7.4740495280251992e+01 -2.0337829522526857e+01 -2.0171743218155422e+02 0 0 0
3251 131 3 0.0000000000000000e+00 -6.1270090922117262e+01 -3.1947096806461488e+01 -2.1195513461343450e+02 0 0 0
2137 86 2 0.0000000000000000e+00 -4.0835797176796618e+01 -3.1931510322478484e+01 -2.1123539212873138e+02 0 0 0
2136 86 2 0.0000000000000000e+00 -3.8740787435762464e+01 -3.0342904290943277e+01 -2.0170560375607897e+02 0 0 0
2475 99 1 0.0000000000000000e+00 3.6194409202002942e+00 -2.0264295244389821e+01 -2.0499088768917855e+02 0 0 0
624 25 2 0.0000000000000000e+00 -8.2785275076086776e+01 -1.8380524278811205e+01 -2.0707249429135581e+02 0 0 0
3270 131 4 0.0000000000000000e+00 -7.3268995563101356e+01 -7.6815308361270063e+00 -2.0548617536266713e+02 0 0 0
2234 90 2 0.0000000000000000e+00 -4.8226764352225487e+01 -9.6716811863342915e+00 -2.0293557477897488e+02 0 0 0
2474 99 2 0.0000000000000000e+00 1.2963330379175799e+01 -1.7587964105459893e+01 -2.0078688633829117e+02 0 0 0
2232 90 1 0.0000000000000000e+00 -5.2588036847547180e+01 4.2576867713482445e+00 -2.0720617209148728e+02 0 0 0
2233 90 2 0.0000000000000000e+00 -4.4458996825267789e+01 -2.2125350128862395e-01 -2.0253201495979596e+02 0 0 0
2471 99 2 0.0000000000000000e+00 3.2669777640173770e+01 -1.9365051760776730e+00 -2.0119918589624373e+02 0 0 0
2460 99 2 0.0000000000000000e+00 4.3614575865293062e+01 -1.2111584938603497e+00 -2.0620246093585283e+02 0 0 0
3925 157 3 0.0000000000000000e+00 -5.0022749934262180e+01 1.5429681446139405e+01 -2.0992420000212903e+02 0 0 0
3025 121 3 0.0000000000000000e+00 1.7089706881459477e+01 -2.5982726619238429e+02 -1.9538385410041045e+02 0 0 0
3024 121 4 0.0000000000000000e+00 1.0615273047522500e+01 -2.6480751988538390e+02 -1.8951810546832596e+02 0 0 0
3020 121 4 0.0000000000000000e+00 -1.2418753819628016e+01 -2.5118380938826323e+02 -1.8625155760911392e+02 0 0 0
3018 121 4 0.0000000000000000e+00 -1.5868132728452750e+01 -2.3187481145413048e+02 -1.8648675953645244e+02 0 0 0
3015 121 4 0.0000000000000000e+00 -3.5274557953107823e+01 -2.1175151568467297e+02 -1.8837154324200208e+02 0 0 0
3014 121 4 0.0000000000000000e+00 -4.4652081193250659e+01 -2.0739311843110764e+02 -1.8971782177852344e+02 0 0 0
3013 121 3 0.0000000000000000e+00 -4.2718919697616691e+01 -1.9766760748671661e+02 -1.9204090054703951e+02 0 0 0
3012 121 4 0.0000000000000000e+00 -3.7757688997542147e+01 -1.8978962797671912e+02 -1.8848002227710259e+02 0 0 0
619 25 1 0.0000000000000000e+00 -8.0950265627096897e+01 -6.4897717798532582e+01 -1.8828598561425582e+02 0 0 0
2150 86 1 0.0000000000000000e+00 -9.1438378284097269e+01 -5.7783075880681707e+01 -1.8725339367417385e+02 0 0 0
620 25 2 0.0000000000000000e+00 -8.1980662420142963e+01 -5.7247166723598028e+01 -1.9384322426218529e+02 0 0 0
621 25 2 0.0000000000000000e+00 -8.1529142388692847e+01 -4.7288692208766925e+01 -1.9510142844942254e+02 0 0 0
2147 86 2 0.0000000000000000e+00 -9.9334936174711743e+01 -4.2149775994701244e+01 -1.8615464967685827e+02 0 0 0
2146 86 2 0.0000000000000000e+00 -9.3919169404825681e+01 -3.9491685625628406e+01 -1.9409573298640683e+02 0 0 0
622 25 2 0.0000000000000000e+00 -8.1815467642138231e+01 -3.7252865473786784e+01 -1.9854722447680950e+02 0 0 0
2236 90 2 0.0000000000000000e+00 -4.9925288520200681e+01 -2.5284217359787178e+01 -1.9055282930047855e+02 0 0 0
2135 86 2 0.0000000000000000e+00 -3.3303188611942517e+01 -2.8202794197018765e+01 -1.9336464344414350e+02 0 0 0
3272 131 4 0.0000000000000000e+00 -7.4981808905060618e+01 -1.4006061106958105e+01 -1.9419902153606350e+02 0 0 0
2235 90 2 0.0000000000000000e+00 -5.1339488945851343e+01 -1.7148813631667540e+01 -1.9596752766188476e+02 0 0 0
2473 99 2 0.0000000000000000e+00 2.0647434266999166e+01 -1.5047632780963939e+01 -1.9437353496073564e+02 0 0 0
2472 99 2 0.0000000000000000e+00 2.9543269996656477e+01 -1.1453223028798812e+01 -1.9781429607044907e+02 0 0 0
3271 131 4 0.0000000000000000e+00 -7.2836927360502145e+01 -4.6317688501939900e+00 -1.9529038177159464e+02 0 0 0
4915 197 4 0.0000000000000000e+00 2.7778838752805306e+01 2.4025754725017654e+00 -1.8591379771701591e+02 0 0 0
2461 99 2 0.0000000000000000e+00 4.5726543568849287e+01 -2.1404821221555452e+00 -1.9668542143556579e+02 0 0 0
2462 99 2 0.0000000000000000e+00 4.5172638630920538e+01 -1.2390813614069240e+00 -1.8668521453043559e+02 0 0 0
4914 197 4 0.0000000000000000e+00 2.5285116872962742e+01 1.1445107241987888e+01 -1.9007100792735142e+02 0 0 0
2470 99 2 0.0000000000000000e+00 3.2704141475348571e+01 8.0201012655080088e+00 -1.9791375038587663e+02 0 0 0
4913 197 3 0.0000000000000000e+00 2.5852574149884930e+01 2.1344681491146350e+01 -1.9143796056108977e+02 0 0 0
2469 99 1 0.0000000000000000e+00 3.6221049547654985e+01 1.5600656216851547e+01 -1.9263251503210955e+02 0 0 0
3023 121 4 0.0000000000000000e+00 2.2153991282682330e+00 -2.6703167146502159e+02 -1.8493046841173106e+02 0 0 0
3021 121 4 0.0000000000000000e+00 -1.1212134021930265e+01 -2.5920856907227369e+02 -1.8011235825427553e+02 0 0 0
3022 121 4 0.0000000000000000e+00 -4.3822502043703722e+00 -2.6605158282998519e+02 -1.7726202255963170e+02 0 0 0
3019 121 3 0.0000000000000000e+00 -1.3454973575623088e+01 -2.4149358425342601e+02 -1.8510195120128773e+02 0 0 0
3017 121 4 0.0000000000000000e+00 -2.2013814153044411e+01 -2.2419552336101867e+02 -1.8407254271659542e+02 0 0 0
3016 121 4 0.0000000000000000e+00 -2.9996770747537099e+01 -2.1806532740165747e+02 -1.8319366646957522e+02 0 0 0
3011 121 4 0.0000000000000000e+00 -2.9734335700082969e+01 -1.8448605895983309e+02 -1.8498696967832026e+02 0 0 0
3010 121 4 0.0000000000000000e+00 -2.5857931617296192e+01 -1.7848740107519728e+02 -1.7763831309526100e+02 0 0 0
617 25 2 0.0000000000000000e+00 -8.9310732521068275e+01 -7.1920309075689900e+01 -1.7321462132085469e+02 0 0 0
618 25 2 0.0000000000000000e+00 -8.1782695108650529e+01 -6.8006325980639915e+01 -1.7870615129909598e+02 0 0 0
2148 86 2 0.0000000000000000e+00 -1.0612597849630194e+02 -4.8837696872435622e+01 -1.8405109754062573e+02 0 0 0
2149 86 2 0.0000000000000000e+00 -1.0033935004794806e+02 -5.6469321609249100e+01 -1.8234230011281556e+02 0 0 0
3163 127 3 0.0000000000000000e+00 -8.4565759821701164e+01 -5.6608576199563096e+01 -1.7869829118580350e+02 0 0 0
3162 127 4 0.0000000000000000e+00 -7.7251075795981023e+01 -5.0087103833297554e+01 -1.8012975493413472e+02 0 0 0
3161 127 4 0.0000000000000000e+00 -7.1731883820144958e+01 -4.1614244318348753e+01 -1.8030731561293436e+02 0 0 0
3160 127 4 0.0000000000000000e+00 -6.6867644651419710e+01 -3.3559573596773483e+01 -1.7744806981846847e+02 0 0 0
2132 86 1 0.0000000000000000e+00 -4.5000676352362838e+01 -4.4639598629938632e+01 -1.7471440601635717e+02 0 0 0
2133 86 2 0.0000000000000000e+00 -3.9244110436356060e+01 -4.0870773321005501e+01 -1.8142503210821454e+02 0 0 0
2134 86 2 0.0000000000000000e+00 -3.3684246355386065e+01 -3.4523630428923994e+01 -1.8515100654333025e+02 0 0 0
3159 127 4 0.0000000000000000e+00 -6.1970156836714438e+01 -2.4557939944716750e+01 -1.7749063922289508e+02 0 0 0
2237 90 2 0.0000000000000000e+00 -4.5075057304595873e+01 -3.1744415499958976e+01 -1.8480362617189553e+02 0 0 0
2238 90 1 0.0000000000000000e+00 -4.2308556561111487e+01 -2.8148770654869960e+01 -1.7531007026227806e+02 0 0 0
2249 90 2 0.0000000000000000e+00 -1.9394233622082783e+01 1.8916001091227599e+00 -1.7420300005719892e+02 0 0 0
2250 90 1 0.0000000000000000e+00 -9.6608799913961914e+00 3.8135136633598314e+00 -1.7582272603230879e+02 0 0 0
4916 197 4 0.0000000000000000e+00 2.4681054219748379e+01 -5.3380174853359925e+00 -1.8111214758979744e+02 0 0 0
2463 99 1 0.0000000000000000e+00 4.3925275308612534e+01 9.7469039335436514e-01 -1.7690019400453616e+02 0 0 0
3914 157 4 0.0000000000000000e+00 -2.4835992332347196e+01 1.0521490237798288e+01 -1.7551472640539282e+02 0 0 0
3913 157 3 0.0000000000000000e+00 -1.5807208224935605e+01 1.1432212070457052e+01 -1.8065053193199424e+02 0 0 0
3912 157 4 0.0000000000000000e+00 -7.4030200529248011e+00 1.5528016318860583e+01 -1.7719863662203380e+02 0 0 0
4909 197 4 0.0000000000000000e+00 2.7521418521510952e+01 1.6988587249049427e+01 -1.7452285818653033e+02 0 0 0
4908 197 4 0.0000000000000000e+00 3.6060156411638268e+01 1.2298306594606155e+01 -1.7664171539013998e+02 0 0 0
4907 197 3 0.0000000000000000e+00 4.1720303073037748e+01 8.7432314339666846e+00 -1.8401985878963075e+02 0 0 0
3009 121 4 0.0000000000000000e+00 -2.5809489426783315e+01 -1.7013986883683941e+02 -1.7144887408865878e+02 0 0 0
3008 121 4 0.0000000000000000e+00 -2.3823510656721137e+01 -1.6420421417485497e+02 -1.6353059662014067e+02 0 0 0
3007 121 3 0.0000000000000000e+00 -1.7960783675604219e+01 -1.5767221498101523e+02 -1.5836150219119241e+02 0 0 0
1450 58 1 0.0000000000000000e+00 -2.6751975532111256e+01 -1.5251337647423807e+02 -1.6296940096994152e+02 0 0 0
616 25 2 0.0000000000000000e+00 -9.2055462280941313e+01 -6.7806905446316847e+01 -1.6495082912217117e+02 0 0 0
3165 127 4 0.0000000000000000e+00 -8.1996908508174442e+01 -6.6611869110744550e+01 -1.6345758446908752e+02 0 0 0
3164 127 4 0.0000000000000000e+00 -7.9107345851298533e+01 -6.0329670031396518e+01 -1.7069268369492093e+02 0 0 0
2130 86 2 0.0000000000000000e+00 -6.0241128850046636e+01 -5.0263113281847609e+01 -1.6365970625185514e+02 0 0 0
2131 86 2 0.0000000000000000e+00 -5.1883501375255932e+01 -4.7087093427125751e+01 -1.6833107752029818e+02 0 0 0
3158 127 4 0.0000000000000000e+00 -5.4170959881076463e+01 -2.3330880338910625e+01 -1.7159654753422089e+02 0 0 0
2239 90 2 0.0000000000000000e+00 -3.8713341073567435e+01 -3.0930463431922128e+01 -1.6644537917033662e+02 0 0 0
4747 190 4 0.0000000000000000e+00 -5.2801554900167254e+01 -8.4048431047948249e+00 -1.6107153625963818e+02 0 0 0
4748 190 4 0.0000000000000000e+00 -5.6005326061802350e+01 -1.7616345442180148e+01 -1.6013222599195328e+02 0 0 0
3156 127 4 0.0000000000000000e+00 -3.9340190004620261e+01 -1.1071847737280549e+01 -1.6900300157600029e+02 0 0 0
3157 127 3 0.0000000000000000e+00 -4.5823125984728854e+01 -1.8349393528193726e+01 -1.7143407102593349e+02 0 0 0
3155 127 4 0.0000000000000000e+00 -2.9685065275754567e+01 -9.7346994464685626e+00 -1.6539166955446092e+02 0 0 0
3154 127 4 0.0000000000000000e+00 -1.9663949523091734e+01 -1.1446105852715483e+01 -1.6379670615506944e+02 0 0 0
3153 127 4 0.0000000000000000e+00 -1.0192094234798342e+01 -1.4026422160947396e+01 -1.6318111985423266e+02 0 0 0
4918 197 4 0.0000000000000000e+00 2.3186599662339827e+01 -1.0514616321533008e+01 -1.6230312841562272e+02 0 0 0
2248 90 2 0.0000000000000000e+00 -2.6381667924249221e+01 -4.7838590942614034e-01 -1.6731455368111665e+02 0 0 0
4917 197 4 0.0000000000000000e+00 2.4171701536201063e+01 -4.7237877470221772e+00 -1.7092771250820340e+02 0 0 0
1706 69 2 0.0000000000000000e+00 -7.5223021986216125e+01 2.0263677122363475e+01 -1.5870650713358373e+02 0 0 0
1707 69 1 0.0000000000000000e+00 -8.3967700668202411e+01 2.1262965021169300e+01 -1.6317582234899308e+02 0 0 0
3917 157 4 0.0000000000000000e+00 -5.0237234897837475e+01 1.4045830089484024e+01 -1.6040117403730804e+02 0 0 0
3918 157 4 0.0000000000000000e+00 -5.8859189313986818e+01 2.0081419263268241e+01 -1.6098893425731566e+02 0 0 0
3916 157 4 0.0000000000000000e+00 -4.0618735022315292e+01 1.1056761256017815e+01 -1.6351987002991527e+02 0 0 0
3915 157 4 0.0000000000000000e+00 -3.2346577409079352e+01 1.3120056264641203e+01 -1.6975338138824128e+02 0 0 0
2464 99 2 0.0000000000000000e+00 4.3816330243508929e+01 8.0590482904303258e+00 -1.6946834750910537e+02 0 0 0
2465 99 2 0.0000000000000000e+00 4.1412893183094532e+01 1.5555055660794000e+01 -1.6266431552920190e+02 0 0 0
1448 58 2 0.0000000000000000e+00 -3.9230393604257287e+01 -1.4377432390834156e+02 -1.5142838688272892e+02 0 0 0
1449 58 2 0.0000000000000000e+00 -3.1260657046764440e+01 -1.4518143455850301e+02 -1.5769400830221790e+02 0 0 0
3005 121 4 0.0000000000000000e+00 -2.0639656725993312e+01 -1.4514234836705444e+02 -1.5438625047530280e+02 0 0 0
3006 121 4 0.0000000000000000e+00 -1.3181042094262562e+01 -1.5145288323004399e+02 -1.5136690112508381e+02 0 0 0
1447 58 2 0.0000000000000000e+00 -4.0708155033195126e+01 -1.3343921080227233e+02 -1.5030545885126406e+02 0 0 0
3004 121 4 0.0000000000000000e+00 -2.1791922161285690e+01 -1.3543703508492536e+02 -1.5084903116439045e+02 0 0 0
3003 121 4 0.0000000000000000e+00 -2.9730091562599910e+01 -1.2981390501936735e+02 -1.4761873115506438e+02 0 0 0
1446 58 2 0.0000000000000000e+00 -3.8369118191699798e+01 -1.2316391413915528e+02 -1.4885568908236141e+02 0 0 0
1429 58 2 0.0000000000000000e+00 -9.2594229308502435e+01 -9.2598081694799433e+01 -1.4631043976355269e+02 0 0 0
1427 58 2 0.0000000000000000e+00 -1.0369298526129954e+02 -7.7235288643241034e+01 -1.4979609198137237e+02 0 0 0
1428 58 2 0.0000000000000000e+00 -9.9862959703712221e+01 -8.5282288350613214e+01 -1.4461507907045257e+02 0 0 0
1432 58 1 0.0000000000000000e+00 -7.2021761101218843e+01 -8.1123726862884851e+01 -1.4800938474753011e+02 0 0 0
3174 127 4 0.0000000000000000e+00 -6.2098245300224562e+01 -8.3308607561704576e+01 -1.4558673572683952e+02 0 0 0
1426 58 1 0.0000000000000000e+00 -1.0894839884802106e+02 -6.9071565742314633e+01 -1.4620327684315905e+02 0 0 0
615 25 2 0.0000000000000000e+00 -9.5393331033797708e+01 -6.3672635863121791e+01 -1.5610104061389251e+02 0 0 0
3166 127 4 0.0000000000000000e+00 -8.5582041051874754e+01 -6.9685373613619262e+01 -1.5505387492870980e+02 0 0 0
3167 127 4 0.0000000000000000e+00 -8.3300367125250560e+01 -7.0017902557247041e+01 -1.4511229419140392e+02 0 0 0
1433 58 2 0.0000000000000000e+00 -6.7008411151720097e+01 -7.3093905875463648e+01 -1.5303267262254349e+02 0 0 0
1434 58 2 0.0000000000000000e+00 -6.3967888898723217e+01 -6.3751406710604414e+01 -1.5016525431615014e+02 0 0 0
614 25 2 0.0000000000000000e+00 -9.6444788937562947e+01 -5.8573993460162427e+01 -1.4705990844691249e+02 0 0 0
2129 86 2 0.0000000000000000e+00 -6.7845063667486414e+01 -5.3248845235796658e+01 -1.5741756160756486e+02 0 0 0
2128 86 2 0.0000000000000000e+00 -6.8263184827900261e+01 -5.4503133089275366e+01 -1.4751389975900767e+02 0 0 0
1517 61 2 0.0000000000000000e+00 1.8667225919537664e+01 -5.8817808931264274e+01 -1.4639142340966330e+02 0 0 0
1516 61 2 0.0000000000000000e+00 2.6781623733430472e+01 -5.9934760181988260e+01 -1.5212816704868200e+02 0 0 0
1515 61 2 0.0000000000000000e+00 3.5126139662939671e+01 -5.5623848582011135e+01 -1.5597782292143717e+02 0 0 0
1514 61 2 0.0000000000000000e+00 4.2637604114606553e+01 -4.9146234513840987e+01 -1.5242130097499765e+02 0 0 0
4750 190 3 0.0000000000000000e+00 -5.9138564430897404e+01 -3.4863588024495691e+01 -1.5136671451735708e+02 0 0 0
2240 90 2 0.0000000000000000e+00 -3.6451765216725377e+01 -3.3930681503030513e+01 -1.5670079873350718e+02 0 0 0
4749 190 4 0.0000000000000000e+00 -5.7983719908263851e+01 -2.5172584395742987e+01 -1.5349726687792787e+02 0 0 0
2241 90 2 0.0000000000000000e+00 -3.1868485688198756e+01 -2.6498163065032944e+01 -1.5167659823515891e+02 0 0 0
2242 90 2 0.0000000000000000e+00 -2.6756961559834515e+01 -2.0989789791227071e+01 -1.4549940163459885e+02 0 0 0
3152 127 4 0.0000000000000000e+00 -1.1828885395676778e+01 -2.0430484422834279e+01 -1.5575516855915617e+02 0 0 0
4920 197 4 0.0000000000000000e+00 2.2053561147630560e+01 -2.1258912612094132e+01 -1.4785637741555871e+02 0 0 0
3151 127 3 0.0000000000000000e+00 -1.3039302551181825e+01 -1.9558113259903593e+01 -1.4605022011391065e+02 0 0 0
4919 197 3 0.0000000000000000e+00 1.7636993964254305e+01 -1.5694914546186986e+01 -1.5597831370160236e+02 0 0 0
665 27 2 0.0000000000000000e+00 2.1610710360311344e+01 -1.0199150454944181e+01 -1.4899015260804222e+02 0 0 0
4746 190 4 0.0000000000000000e+00 -4.9164899667306550e+01 4.7211122076883119e-02 -1.5667661428021407e+02 0 0 0
4745 190 4 0.0000000000000000e+00 -3.8435098333949590e+01 6.9131722415106500e-01 -1.5522318085414111e+02 0 0 0
2247 90 2 0.0000000000000000e+00 -2.5130491255371780e+01 -3.1531389487607679e+00 -1.5784505402306544e+02 0 0 0
4744 190 3 0.0000000000000000e+00 -3.2896354917586741e+01 -7.7238525221864252e-01 -1.4691809616543969e+02 0 0 0
2246 90 2 0.0000000000000000e+00 -1.7027940849549797e+01 -2.5569562935904426e+00 -1.5277806447897200e+02 0 0 0
2245 90 2 0.0000000000000000e+00 -9.9575972891269888e+00 -1.7998924861905330e+00 -1.4550135298132537e+02 0 0 0
1726 70 1 0.0000000000000000e+00 1.4755155212701689e+01 -4.8801511025590765e+00 -1.5770623840777566e+02 0 0 0
1727 70 2 0.0000000000000000e+00 9.0444691153585630e+00 3.7344233517136556e+00 -1.5738502530129730e+02 0 0 0
666 27 2 0.0000000000000000e+00 2.8033654685677575e+01 -3.0866924721995219e+00 -1.4572243224594484e+02 0 0 0
667 27 2 0.0000000000000000e+00 3.3214142825385551e+01 5.6909625938495978e+00 -1.4602100559598767e+02 0 0 0
1705 69 2 0.0000000000000000e+00 -6.8455552603936823e+01 1.5407108875113934e+01 -1.5232735733001658e+02 0 0 0
1728 70 2 0.0000000000000000e+00 1.4753594093292012e+01 1.1954598821851592e+01 -1.5678802054988950e+02 0 0 0
1445 58 2 0.0000000000000000e+00 -3.8193074840643753e+01 -1.1610955644239030e+02 -1.4157086912346719e+02 0 0 0
3002 121 4 0.0000000000000000e+00 -2.8700111099814059e+01 -1.2170552028730853e+02 -1.4114629407757397e+02 0 0 0
2343 94 2 0.0000000000000000e+00 -4.2784085243727745e+01 -1.0786951120524130e+02 -1.3383332780719854e+02 0 0 0
3001 121 3 0.0000000000000000e+00 -2.0527047017336255e+01 -1.1550973652612177e+02 -1.3957080557563506e+02 0 0 0
1444 58 1 0.0000000000000000e+00 -3.0860221669101026e+01 -1.1146691971440043e+02 -1.3718586587518215e+02 0 0 0
1443 58 2 0.0000000000000000e+00 -2.6658718819227463e+01 -1.0306132800139750e+02 -1.3980816473175526e+02 0 0 0
1442 58 2 0.0000000000000000e+00 -2.0821741799906253e+01 -9.4293245766697723e+01 -1.4083870905735515e+02 0 0 0
1430 58 2 0.0000000000000000e+00 -9.0533221051003878e+01 -8.3534782242457709e+01 -1.4162275204353435e+02 0 0 0
1431 58 2 0.0000000000000000e+00 -8.0689771446035692e+01 -8.1986707513357487e+01 -1.4328555550198814e+02 0 0 0
3175 127 3 0.0000000000000000e+00 -6.8714339460170066e+01 -8.4164075448167651e+01 -1.3765025288951713e+02 0 0 0
3173 127 4 0.0000000000000000e+00 -5.5810386446363665e+01 -8.3616546778814154e+01 -1.3787912861109712e+02 0 0 0
3172 127 4 0.0000000000000000e+00 -5.3098844932730835e+01 -7.6595452587737469e+01 -1.3180255250412742e+02 0 0 0
1439 58 2 0.0000000000000000e+00 -3.6941846970641571e+01 -7.7551997519710596e+01 -1.3586092051045981e+02 0 0 0
1440 58 2 0.0000000000000000e+00 -2.7877810599181842e+01 -8.0329840444810046e+01 -1.3814671192180845e+02 0 0 0
1441 58 2 0.0000000000000000e+00 -1.9051565555127347e+01 -8.4166761438316612e+01 -1.4136594705992616e+02 0 0 0
3168 127 4 0.0000000000000000e+00 -7.5874995663824620e+01 -6.6741938200794905e+01 -1.3862895012346712e+02 0 0 0
1435 58 2 0.0000000000000000e+00 -6.2694306778377701e+01 -6.2292331624807233e+01 -1.3970038574707741e+02 0 0 0
1437 58 2 0.0000000000000000e+00 -4.9967026910264700e+01 -6.2971968134061981e+01 -1.3190885536531744e+02 0 0 0
1438 58 1 0.0000000000000000e+00 -4.3768972333136581e+01 -7.0143039038131519e+01 -1.3544778476736568e+02 0 0 0
1518 61 2 0.0000000000000000e+00 1.8006899753680667e+01 -6.2519954931046641e+01 -1.3694327344973047e+02 0 0 0
4866 195 4 0.0000000000000000e+00 4.8765020323182078e+01 -6.8108371459913940e+01 -1.3384682827392811e+02 0 0 0
612 25 2 0.0000000000000000e+00 -1.0404309335482733e+02 -5.1624494120408592e+01 -1.3061129338091621e+02 0 0 0
613 25 1 0.0000000000000000e+00 -9.8118805816122105e+01 -5.1849257194016381e+01 -1.3886300261224787e+02 0 0 0
2127 86 2 0.0000000000000000e+00 -7.0423148961277391e+01 -5.7411256097994631e+01 -1.3787559912727008e+02 0 0 0
4864 195 4 0.0000000000000000e+00 4.6042962796397219e+01 -4.9106388954862830e+01 -1.3909167922570052e+02 0 0 0
4865 195 4 0.0000000000000000e+00 4.7513076020483652e+01 -5.8198336478225478e+01 -1.3511346895295614e+02 0 0 0
4824 193 4 0.0000000000000000e+00 -9.0303579193537246e+01 -3.8735809366655616e+01 -1.3323869953469830e+02 0 0 0
4823 193 4 0.0000000000000000e+00 -7.9984050169649308e+01 -4.0141812645060973e+01 -1.3569849987405865e+02 0 0 0
4863 195 3 0.0000000000000000e+00 4.4231427295597356e+01 -3.9528197522083708e+01 -1.4100310486106872e+02 0 0 0
843 34 2 0.0000000000000000e+00 -4.0626452572523057e+01 -3.1763532455011276e+01 -1.3982996308501248e+02 0 0 0
842 34 2 0.0000000000000000e+00 -3.2032660863287937e+01 -3.1386114252341084e+01 -1.3526097881892593e+02 0 0 0
841 34 2 0.0000000000000000e+00 -2.2726919851521966e+01 -2.8886687952318635e+01 -1.3293309223743856e+02 0 0 0
663 27 1 0.0000000000000000e+00 1.5893125249013092e+01 -2.1844770729284150e+01 -1.3735697126950228e+02 0 0 0
4921 197 4 0.0000000000000000e+00 2.8403521173867400e+01 -2.2597840347467812e+01 -1.4032333240780343e+02 0 0 0
4922 197 4 0.0000000000000000e+00 2.7671956317807513e+01 -2.5945967873080161e+01 -1.3077265108027697e+02 0 0 0
4862 195 4 0.0000000000000000e+00 4.3328952858731554e+01 -3.0145922247205956e+01 -1.3623366561364566e+02 0 0 0
78 4 2 0.0000000000000000e+00 -5.2961297331190586e+01 -1.0370055095496987e+01 -1.3103864329594134e+02 0 0 0
2243 90 2 0.0000000000000000e+00 -2.1607376908193487e+01 -1.2137107029913185e+01 -1.4387074371894008e+02 0 0 0
2244 90 1 0.0000000000000000e+00 -1.2301337314181179e+01 -1.0479352186300739e+01 -1.4049583578372980e+02 0 0 0
664 27 2 0.0000000000000000e+00 1.3468057871741477e+01 -1.4448546134338095e+01 -1.4361233440569316e+02 0 0 0
1502 61 2 0.0000000000000000e+00 4.2105404901605716e+01 -1.1356543845620987e+01 -1.3711506291468709e+02 0 0 0
79 4 2 0.0000000000000000e+00 -5.0628083560777355e+01 -8.4132692290187872e-01 -1.3361167473616828e+02 0 0 0
4743 190 4 0.0000000000000000e+00 -3.3869690631062355e+01 -1.6350623271106830e+00 -1.3739692428900929e+02 0 0 0
2007 81 1 0.0000000000000000e+00 -7.8417222522285414e+01 1.2984190178504512e+01 -1.3182935050155763e+02 0 0 0
1704 69 2 0.0000000000000000e+00 -6.3397293149131499e+01 1.5097300358398675e+01 -1.4333216732887743e+02 0 0 0
1703 69 2 0.0000000000000000e+00 -5.6978656883428030e+01 1.1512942914870962e+01 -1.3618327794376810e+02 0 0 0
1702 69 2 0.0000000000000000e+00 -4.7400427520306842e+01 1.1347141821074903e+01 -1.3391050317830513e+02 0 0 0
1701 69 1 0.0000000000000000e+00 -3.7290911113995307e+01 8.7364397016493136e+00 -1.3322885673136233e+02 0 0 0
668 27 2 0.0000000000000000e+00 3.8881622180101850e+01 1.2461379084965046e+01 -1.4130422658195522e+02 0 0 0
669 27 1 0.0000000000000000e+00 4.6524892688471063e+01 1.2757269731989307e+01 -1.3492510471451183e+02 0 0 0
2345 94 2 0.0000000000000000e+00 -4.5015326885683287e+01 -1.1769815814008915e+02 -1.1906672825481994e+02 0 0 0
4475 179 3 0.0000000000000000e+00 -1.0329908981667225e+01 -1.2532814605027319e+02 -1.2225508139265747e+02 0 0 0
4458 179 4 0.0000000000000000e+00 -6.7180384721621621e+01 -1.0889246176284352e+02 -1.2321154742704508e+02 0 0 0
2344 94 1 0.0000000000000000e+00 -4.7320283653263168e+01 -1.1431973445195356e+02 -1.2792587472470029e+02 0 0 0
4457 179 3 0.0000000000000000e+00 -5.7685677191675254e+01 -1.0970351953024168e+02 -1.2655177973467548e+02 0 0 0
4456 179 4 0.0000000000000000e+00 -5.0525695205653726e+01 -1.0226273472643565e+02 -1.2827031282452029e+02 0 0 0
2342 94 2 0.0000000000000000e+00 -3.5189835833824993e+01 -1.0333485545307433e+02 -1.2975635485943235e+02 0 0 0
2175 87 1 0.0000000000000000e+00 3.1681196737808907e+01 -1.1500320696565497e+02 -1.2883601171803772e+02 0 0 0
2173 87 2 0.0000000000000000e+00 4.8608581437826849e+01 -1.0589874194144582e+02 -1.3013657037683160e+02 0 0 0
2174 87 2 0.0000000000000000e+00 3.8550981827772731e+01 -1.0799541503402754e+02 -1.3011583833793014e+02 0 0 0
4455 179 4 0.0000000000000000e+00 -4.8098526271132819e+01 -9.2931647457878114e+01 -1.2848746801373733e+02 0 0 0
2341 94 2 0.0000000000000000e+00 -3.1124706700593094e+01 -9.4874694548278384e+01 -1.2643694036575215e+02 0 0 0
4879 196 4 0.0000000000000000e+00 -6.8668775548996734e+01 -8.3385336759515653e+01 -1.2276947456605984e+02 0 0 0
4880 196 4 0.0000000000000000e+00 -6.1951716878646238e+01 -7.6715774076255229e+01 -1.1913589714171063e+02 0 0 0
4454 179 4 0.0000000000000000e+00 -5.1529766074537996e+01 -8.5653983363924539e+01 -1.2309538006526017e+02 0 0 0
4453 179 4 0.0000000000000000e+00 -4.9195179261866144e+01 -7.7263535874933822e+01 -1.1884810186470702e+02 0 0 0
2340 94 2 0.0000000000000000e+00 -2.8360743086832116e+01 -8.5428748853836424e+01 -1.2470925467298021e+02 0 0 0
2339 94 2 0.0000000000000000e+00 -1.9449989909832368e+01 -8.1348032888434233e+01 -1.2536775819456146e+02 0 0 0
1522 61 2 0.0000000000000000e+00 4.6206594954920590e+01 -7.7876891445189415e+01 -1.1956946488656264e+02 0 0 0
1521 61 2 0.0000000000000000e+00 3.7001400478540710e+01 -7.8682877647025066e+01 -1.2395187373023128e+02 0 0 0