LAMMPS data file via write_data, version 5 Jun 2019, timestep = 400000000

5000 atoms
4 atom types
5213 bonds
3 bond types
4600 angles
2 angle types

-5.0000000000000000e+02 5.0000000000000000e+02 xlo xhi
-5.0000000000000000e+02 5.0000000000000000e+02 ylo yhi
-5.0000000000000000e+02 5.0000000000000000e+02 zlo zhi

Masses

1 1000
2 1000
3 1000
4 1000

Pair Coeffs # lj/cut

1 0.18 10
2 0.18 10
3 0.18 10
4 0.18 10

Bond Coeffs # harmonic

1 3 10
2 3 10
3 1.8 11.22

Angle Coeffs # cosine

1 2
2 2

Atoms # full

2142 86 2 0.0000000000000000e+00 1.9728570523744825e+01 -1.8570562697707150e+01 -2.5704488204671691e+02 0 0 0
2141 86 2 0.0000000000000000e+00 2.8697331661000248e+01 -1.9440643631478178e+01 -2.6256588289447348e+02 0 0 0
2126 86 1 0.0000000000000000e+00 -1.0106725825435847e+01 -1.0975353167862184e+02 -2.4960875577837652e+02 0 0 0
2127 86 2 0.0000000000000000e+00 -5.7038648224121280e+00 -1.0087956847123364e+02 -2.5134976218158064e+02 0 0 0
2128 86 2 0.0000000000000000e+00 -7.8390131692812159e-01 -9.2360909777316678e+01 -2.5471504612531999e+02 0 0 0
2129 86 2 0.0000000000000000e+00 3.2530740235905173e+00 -8.2922435854021643e+01 -2.5556613905846325e+02 0 0 0
2130 86 2 0.0000000000000000e+00 9.4466263707795051e+00 -7.5297832211029998e+01 -2.5413326532596906e+02 0 0 0
2131 86 2 0.0000000000000000e+00 1.8647857896162574e+01 -7.1104012148252409e+01 -2.5543937478428546e+02 0 0 0
2132 86 1 0.0000000000000000e+00 2.8477494562026692e+01 -6.9386662081375562e+01 -2.5479360266733792e+02 0 0 0
2143 86 2 0.0000000000000000e+00 1.4347611115166830e+01 -2.5471143109834465e+01 -2.5179438020192549e+02 0 0 0
3914 157 4 0.0000000000000000e+00 2.1139221241023847e+01 -1.0210611909622058e+01 -2.4392926655024667e+02 0 0 0
3913 157 3 0.0000000000000000e+00 1.1444367090348541e+01 -1.3839063727487442e+01 -2.4345992371760806e+02 0 0 0
2140 86 2 0.0000000000000000e+00 3.6002070267552853e+01 -2.1338581417645116e+01 -2.5478860426631044e+02 0 0 0
3910 157 4 0.0000000000000000e+00 1.8312867534239079e+01 4.7619371556891177e-01 -2.4526664610421457e+02 0 0 0
3909 157 4 0.0000000000000000e+00 1.8627296466466195e+01 9.2136257979077669e+00 -2.5040179825949679e+02 0 0 0
3908 157 4 0.0000000000000000e+00 1.3344143153561417e+01 1.7490225194166619e+01 -2.4805568675051703e+02 0 0 0
4453 179 4 0.0000000000000000e+00 -2.2755946768752121e+01 -2.5993269655796709e+01 -2.3134844914078658e+02 0 0 0
2144 86 1 0.0000000000000000e+00 1.4258651040793035e+01 -2.4022664981640609e+01 -2.4201871192383769e+02 0 0 0
3509 141 4 0.0000000000000000e+00 3.5453436087938407e+01 -3.3740840499232782e+01 -2.3263378186580482e+02 0 0 0
4451 179 3 0.0000000000000000e+00 -3.8221905404458582e+01 -1.8513060077587983e+01 -2.4089448496607667e+02 0 0 0
4452 179 4 0.0000000000000000e+00 -2.9769635243738527e+01 -2.3209992131665796e+01 -2.3765846945905574e+02 0 0 0
2145 86 2 0.0000000000000000e+00 7.9972974448115126e+00 -2.2733917010324998e+01 -2.3426026538247470e+02 0 0 0
3912 157 4 0.0000000000000000e+00 3.1145825925503750e+00 -9.9244413334838750e+00 -2.3815028171044094e+02 0 0 0
3911 157 4 0.0000000000000000e+00 9.4069358420317428e+00 -2.7231091355435648e+00 -2.4173221941987154e+02 0 0 0
3915 157 4 0.0000000000000000e+00 2.3568613197551535e+01 -3.5402431296958374e+00 -2.3658877446514572e+02 0 0 0
3916 157 4 0.0000000000000000e+00 3.1661778084714452e+01 1.5928862713325909e+00 -2.3873079396355899e+02 0 0 0
3907 157 3 0.0000000000000000e+00 6.6677611533193808e+00 1.8767844527019264e+01 -2.4052195446711434e+02 0 0 0
3906 157 4 0.0000000000000000e+00 1.2594398641774728e+01 2.3272015171532836e+01 -2.3475593154464320e+02 0 0 0
1430 58 2 0.0000000000000000e+00 1.4422518565422957e+01 -8.0657838892561315e+01 -2.2170752859544803e+02 0 0 0
1428 58 2 0.0000000000000000e+00 7.9481961304618336e+00 -7.0603011985131374e+01 -2.2220408265792727e+02 0 0 0
1427 58 2 0.0000000000000000e+00 -1.4367640249179940e+00 -7.3559606988546349e+01 -2.2056225383582810e+02 0 0 0
1429 58 2 0.0000000000000000e+00 1.4419067738831032e+01 -7.3702284973465652e+01 -2.2930399213449618e+02 0 0 0
1432 58 1 0.0000000000000000e+00 1.7665121701964114e+01 -7.2040491754016216e+01 -2.1655528154757081e+02 0 0 0
1434 58 2 0.0000000000000000e+00 2.1074411160743981e+01 -5.3965388537848270e+01 -2.1795367877395967e+02 0 0 0
1435 58 2 0.0000000000000000e+00 2.7075729472151018e+01 -4.6048430260366857e+01 -2.1709959690741556e+02 0 0 0
1436 58 2 0.0000000000000000e+00 3.6934721147081738e+01 -4.5506624726739609e+01 -2.1853184650566502e+02 0 0 0
2147 86 2 0.0000000000000000e+00 -7.6594091705477769e+00 -2.5476515806656280e+01 -2.2523276588206252e+02 0 0 0
3508 141 4 0.0000000000000000e+00 3.2116104465549462e+01 -2.7201772088824296e+01 -2.2585070693395363e+02 0 0 0
4455 179 4 0.0000000000000000e+00 -1.7942564776502440e+01 -1.3629365803330376e+01 -2.2523882356535816e+02 0 0 0
4454 179 4 0.0000000000000000e+00 -1.7477161014658009e+01 -2.3448520224836219e+01 -2.2248424088167522e+02 0 0 0
2148 86 2 0.0000000000000000e+00 -9.5967278106438041e+00 -1.8395654699882463e+01 -2.1841630815838604e+02 0 0 0
2146 86 2 0.0000000000000000e+00 1.2814736399835129e+00 -2.1457908892111952e+01 -2.2672700371797944e+02 0 0 0
89 4 2 0.0000000000000000e+00 1.4010682263299636e+01 -1.7289309454804101e+01 -2.1954988618731133e+02 0 0 0
88 4 1 0.0000000000000000e+00 2.1048604413905551e+01 -1.3930955197366140e+01 -2.2536539956774874e+02 0 0 0
87 4 2 0.0000000000000000e+00 3.0511322693861416e+01 -1.3009326858921710e+01 -2.2679579315415802e+02 0 0 0
3507 141 3 0.0000000000000000e+00 2.8875533466501199e+01 -2.0102881261226592e+01 -2.1994849626820653e+02 0 0 0
4456 179 4 0.0000000000000000e+00 -1.9390659438142709e+01 -4.8685276886336633e+00 -2.2309783402699946e+02 0 0 0
3904 157 4 0.0000000000000000e+00 1.0697429343704332e+01 2.6777347058841556e+01 -2.2115437373796590e+02 0 0 0
3905 157 4 0.0000000000000000e+00 1.8269054347941438e+01 2.6013461211936807e+01 -2.2691142123408886e+02 0 0 0
3903 157 4 0.0000000000000000e+00 2.4655030453963778e+00 3.1501120666932298e+01 -2.1816349069081031e+02 0 0 0
3159 127 4 0.0000000000000000e+00 2.3334237680648254e+01 3.7361694103434907e+01 -2.2101661431749966e+02 0 0 0
3158 127 4 0.0000000000000000e+00 1.4661963281130340e+01 3.5532734664958596e+01 -2.1633016864543507e+02 0 0 0
3160 127 4 0.0000000000000000e+00 3.2099414753480382e+01 3.7416043092593540e+01 -2.1605878742862475e+02 0 0 0
1950 78 1 0.0000000000000000e+00 -6.6959349923621076e+01 4.6940313562119186e+01 -2.2446294850274222e+02 0 0 0
3175 127 3 0.0000000000000000e+00 -6.9228919369568786e+01 5.4792328234550943e+01 -2.1750158630769243e+02 0 0 0
1949 78 2 0.0000000000000000e+00 -5.8121648950537576e+01 4.9311206760028313e+01 -2.2902479687776949e+02 0 0 0
1948 78 2 0.0000000000000000e+00 -5.5067337081124130e+01 5.8068176933956636e+01 -2.2545894737260829e+02 0 0 0
591 24 2 0.0000000000000000e+00 4.1400401718404778e+00 6.6694406201381071e+01 -2.2189120600539931e+02 0 0 0
592 24 2 0.0000000000000000e+00 -3.1601247834029240e+00 6.1635221085174557e+01 -2.1716287321990285e+02 0 0 0
588 24 1 0.0000000000000000e+00 2.2117519343929192e+01 6.1759823010791060e+01 -2.1619210765765956e+02 0 0 0
589 24 2 0.0000000000000000e+00 2.0032445552652181e+01 6.9156035509422722e+01 -2.2211479353022426e+02 0 0 0
2010 81 2 0.0000000000000000e+00 -9.7946373816802947e+01 7.8642209023184520e+01 -2.2228659884821653e+02 0 0 0
590 24 2 0.0000000000000000e+00 1.1057578246241317e+01 7.3643854257023733e+01 -2.2397829961775707e+02 0 0 0
1431 58 2 0.0000000000000000e+00 1.9684658814308026e+01 -8.1045188926696284e+01 -2.1320438758013583e+02 0 0 0
4391 176 4 0.0000000000000000e+00 3.7301447588396769e+01 -8.4750172400317197e+01 -2.0669139192148137e+02 0 0 0
1426 58 1 0.0000000000000000e+00 -6.8645179046570739e+00 -6.7132617627225599e+01 -2.1455907044464010e+02 0 0 0
3251 131 3 0.0000000000000000e+00 -9.8434200594364274e+00 -7.5914096471435499e+01 -2.0803005582867556e+02 0 0 0
3252 131 4 0.0000000000000000e+00 5.2464218062246626e-01 -7.4204057190759059e+01 -2.0628705740247113e+02 0 0 0
3253 131 4 0.0000000000000000e+00 7.0327302963097349e+00 -6.6706094460041541e+01 -2.0551018801573716e+02 0 0 0
1433 58 2 0.0000000000000000e+00 1.5415658535989671e+01 -6.2241160670509920e+01 -2.1572236771267376e+02 0 0 0
3254 131 4 0.0000000000000000e+00 1.5987934699144553e+01 -6.2657363776562534e+01 -2.0543166767650416e+02 0 0 0
3255 131 4 0.0000000000000000e+00 2.3285053135944914e+01 -5.6829276178486936e+01 -2.0904349711980001e+02 0 0 0
3256 131 4 0.0000000000000000e+00 2.9201064122312594e+01 -4.8604759123910931e+01 -2.0682459162982715e+02 0 0 0
3257 131 3 0.0000000000000000e+00 3.3507461898445470e+01 -3.9510084461921629e+01 -2.0613768706889036e+02 0 0 0
92 4 2 0.0000000000000000e+00 -8.6261538009277461e-01 -3.0756527408195751e+01 -2.0591481771423264e+02 0 0 0
3259 131 4 0.0000000000000000e+00 2.0607498667695136e+01 -2.7578584152027727e+01 -2.0603024856427038e+02 0 0 0
3258 131 4 0.0000000000000000e+00 2.9481333814350180e+01 -3.1036947705123435e+01 -2.0772304242893503e+02 0 0 0
4069 163 3 0.0000000000000000e+00 -5.8721397132306450e+01 -1.0756875607551605e+01 -2.1063970861766975e+02 0 0 0
91 4 2 0.0000000000000000e+00 4.3828037503715986e+00 -2.3032173168656151e+01 -2.0968474194738897e+02 0 0 0
90 4 2 0.0000000000000000e+00 8.0414468679961377e+00 -1.3938806854182115e+01 -2.1206066201434726e+02 0 0 0
3506 141 4 0.0000000000000000e+00 2.2222444014842370e+01 -1.5532667901414429e+01 -2.1428795821824320e+02 0 0 0
4070 163 4 0.0000000000000000e+00 -6.1508929429291776e+01 -3.1821759185998229e+00 -2.0437131666135849e+02 0 0 0
4457 179 3 0.0000000000000000e+00 -2.1408613822316426e+01 -5.7916008409475674e+00 -2.1334218428951564e+02 0 0 0
4458 179 4 0.0000000000000000e+00 -2.0220112420735827e+01 -7.6348729471609804e+00 -2.0424400245033127e+02 0 0 0
2149 86 2 0.0000000000000000e+00 -1.0033256360115448e+01 -9.7939291720669868e+00 -2.1310266643483459e+02 0 0 0
2150 86 1 0.0000000000000000e+00 -1.1408113055100879e+01 -6.6908678925645670e-02 -2.1272563360896399e+02 0 0 0
3505 141 4 0.0000000000000000e+00 2.5109111478698630e+01 -8.9616258161801383e+00 -2.0737520670692552e+02 0 0 0
525 21 1 0.0000000000000000e+00 1.6643198828851290e+01 2.6740002457362618e+01 -2.0280668187406857e+02 0 0 0
3173 127 4 0.0000000000000000e+00 -6.0422768693108033e+01 4.0331183865992720e+01 -2.0727502254480009e+02 0 0 0
3172 127 4 0.0000000000000000e+00 -5.1440301597687956e+01 3.8242181410657608e+01 -2.0449020755727000e+02 0 0 0
3171 127 4 0.0000000000000000e+00 -4.3371366160130755e+01 4.4180796818967565e+01 -2.0733544846172498e+02 0 0 0
595 24 2 0.0000000000000000e+00 -2.4183955129972080e+01 4.3198908392347079e+01 -2.1081762683121590e+02 0 0 0
596 24 2 0.0000000000000000e+00 -2.6798323728832820e+01 3.6096516762713478e+01 -2.0356281126848216e+02 0 0 0
3902 157 4 0.0000000000000000e+00 -4.6861802025679031e+00 3.6435842328244682e+01 -2.1481246699921678e+02 0 0 0
3901 157 3 0.0000000000000000e+00 -8.4592488616344230e+00 4.3194904429072167e+01 -2.0896733180118255e+02 0 0 0
3157 127 3 0.0000000000000000e+00 9.0234198268917218e+00 3.2997488629012430e+01 -2.0792643130597526e+02 0 0 0
3161 127 4 0.0000000000000000e+00 2.3709141875741071e+01 3.8939762014171905e+01 -2.1079217136944604e+02 0 0 0
3174 127 4 0.0000000000000000e+00 -6.6573026170419681e+01 4.6245364526780946e+01 -2.1281486090509384e+02 0 0 0
3170 127 4 0.0000000000000000e+00 -3.4457754879992819e+01 4.8571226657315862e+01 -2.0558066514644216e+02 0 0 0
594 24 1 0.0000000000000000e+00 -1.6743755390234043e+01 5.0206530668656626e+01 -2.1102417964961504e+02 0 0 0
3162 127 4 0.0000000000000000e+00 1.8316523722935500e+01 4.5922258397184194e+01 -2.0577819956755386e+02 0 0 0
1947 78 2 0.0000000000000000e+00 -5.3652552378347075e+01 6.1798382450302647e+01 -2.1555655253860141e+02 0 0 0
1946 78 2 0.0000000000000000e+00 -4.7779417916162451e+01 5.8084708361021434e+01 -2.0942230463542865e+02 0 0 0
593 24 2 0.0000000000000000e+00 -1.0730790360885379e+01 5.8191695376574529e+01 -2.1114895076281724e+02 0 0 0
587 24 2 0.0000000000000000e+00 1.8962506372898975e+01 5.9744160092323746e+01 -2.0662375011206018e+02 0 0 0
2011 81 2 0.0000000000000000e+00 -9.2870751821294775e+01 7.3175538621395361e+01 -2.1571950840714103e+02 0 0 0
3710 149 4 0.0000000000000000e+00 -9.2014325037699990e+01 8.3151118899408161e+01 -2.0699555822619655e+02 0 0 0
2012 81 2 0.0000000000000000e+00 -8.2907946119813346e+01 7.2979180418893094e+01 -2.1427641152826729e+02 0 0 0
2013 81 1 0.0000000000000000e+00 -7.8242290864087195e+01 7.7476738224759131e+01 -2.0702447996828369e+02 0 0 0
4994 200 3 0.0000000000000000e+00 -6.8613026411156028e+01 8.2785886220534366e+01 -2.0989884258207186e+02 0 0 0
4995 200 4 0.0000000000000000e+00 -6.7407045740200459e+01 7.4834756276190120e+01 -2.0406649617662191e+02 0 0 0
3275 131 3 0.0000000000000000e+00 -7.7324250386096267e+00 -9.7433451769847309e+01 -1.9410930610598226e+02 0 0 0
3274 131 4 0.0000000000000000e+00 -3.3267717910995964e+00 -8.7960811900845258e+01 -1.9497503894207543e+02 0 0 0
3273 131 4 0.0000000000000000e+00 3.0076491376614356e-01 -7.8750205830738238e+01 -1.9682871272961231e+02 0 0 0
3272 131 4 0.0000000000000000e+00 7.1410415076169782e+00 -7.5917814473427811e+01 -1.9001808199716737e+02 0 0 0
1443 58 2 0.0000000000000000e+00 3.3513772574806730e+01 -6.9722620875185882e+01 -1.9476500809215312e+02 0 0 0
4389 176 4 0.0000000000000000e+00 3.6929045772703404e+01 -7.6930297916949399e+01 -1.9107377463054496e+02 0 0 0
2230 90 2 0.0000000000000000e+00 2.0093188982289892e+01 -4.4898448639772660e+01 -1.9110134206382696e+02 0 0 0
2231 90 2 0.0000000000000000e+00 2.8190984463282003e+01 -3.9219791121209710e+01 -1.9387798084301087e+02 0 0 0
93 4 2 0.0000000000000000e+00 -3.9269390088735925e+00 -3.3346366710393987e+01 -1.9665239244965153e+02 0 0 0
3260 131 4 0.0000000000000000e+00 1.6097705005207885e+01 -2.8528998317533350e+01 -1.9702513506549101e+02 0 0 0
3261 131 4 0.0000000000000000e+00 1.0683684786341654e+01 -3.3622709681922984e+01 -1.9016295795357760e+02 0 0 0
2232 90 1 0.0000000000000000e+00 3.5437205749242892e+01 -3.3613357426068156e+01 -1.9884612695609647e+02 0 0 0
2233 90 2 0.0000000000000000e+00 3.6700814705637640e+01 -2.3984149701658392e+01 -2.0050922524028579e+02 0 0 0
4068 163 4 0.0000000000000000e+00 -5.4378399444266158e+01 -1.1548370515633424e+01 -2.0160230613777003e+02 0 0 0
4460 179 4 0.0000000000000000e+00 -7.0947877208012953e+00 -1.0568579126562538e+01 -1.9043093786369138e+02 0 0 0
2234 90 2 0.0000000000000000e+00 3.5386268994142824e+01 -1.4079619376804697e+01 -1.9747514668271720e+02 0 0 0
4071 163 4 0.0000000000000000e+00 -6.3866563251437960e+01 1.5853484266132982e+00 -1.9553586095453636e+02 0 0 0
4067 163 4 0.0000000000000000e+00 -4.7428189405164275e+01 -5.5794454115559109e+00 -1.9778852178970089e+02 0 0 0
4459 179 4 0.0000000000000000e+00 -1.5328844339595282e+01 -6.8353391869852613e+00 -1.9548135828436389e+02 0 0 0
3504 141 4 0.0000000000000000e+00 1.9821221934562253e+01 -4.2289327883973833e+00 -2.0035946534246835e+02 0 0 0
3503 141 4 0.0000000000000000e+00 1.9637135898036423e+01 -7.9739671807568664e+00 -1.9104940818667259e+02 0 0 0
2235 90 2 0.0000000000000000e+00 3.6205856620473604e+01 -4.6939323708797760e+00 -1.9404348943119291e+02 0 0 0
4072 163 4 0.0000000000000000e+00 -6.2697245411869190e+01 1.0500625841346586e+01 -1.9128850209364884e+02 0 0 0
4065 163 4 0.0000000000000000e+00 -4.5808228769115772e+01 1.3526035645858162e+01 -1.9238226818200141e+02 0 0 0
4066 163 4 0.0000000000000000e+00 -4.3836464002853781e+01 4.0998459861755912e+00 -1.9653868755453919e+02 0 0 0
1123 45 2 0.0000000000000000e+00 -2.2528055238240700e+01 9.5790073124299457e+00 -1.9612792900220347e+02 0 0 0
1122 45 2 0.0000000000000000e+00 -1.9253532555684153e+01 3.8796400820379429e+00 -1.8889710390004825e+02 0 0 0
523 21 2 0.0000000000000000e+00 1.4958970060986376e+01 1.1336103109637943e+01 -1.9389535038392376e+02 0 0 0
1124 45 2 0.0000000000000000e+00 -2.8785908616521780e+01 1.7588216689581170e+01 -1.9627711480449383e+02 0 0 0
1125 45 1 0.0000000000000000e+00 -3.1473695424500402e+01 2.5931953061634061e+01 -1.9194199383365640e+02 0 0 0
524 21 2 0.0000000000000000e+00 1.8473131596099449e+01 2.1131939717009669e+01 -1.9461153032934237e+02 0 0 0
597 24 2 0.0000000000000000e+00 -2.2768844341898326e+01 3.7792351896571098e+01 -1.9453435990736878e+02 0 0 0
3156 127 4 0.0000000000000000e+00 3.5764584408179916e+00 3.3093063399944754e+01 -1.9971056280287985e+02 0 0 0
3155 127 4 0.0000000000000000e+00 -1.8499370358008125e+00 3.5794410757594292e+01 -1.9162043754577283e+02 0 0 0
3650 146 3 0.0000000000000000e+00 1.0129614867596334e+01 4.1662562520471667e+01 -1.9374467392762722e+02 0 0 0
582 24 1 0.0000000000000000e+00 1.5570873595371953e+01 3.3067380014478097e+01 -1.8929350375132145e+02 0 0 0
584 24 2 0.0000000000000000e+00 2.9498594124148813e+01 4.1460746497000798e+01 -1.9566605679241533e+02 0 0 0
3063 123 3 0.0000000000000000e+00 -7.0618140470442327e+01 5.3979061448482710e+01 -1.8933901414012453e+02 0 0 0
1945 78 2 0.0000000000000000e+00 -4.3395577577012780e+01 5.3058739993160607e+01 -2.0214688510371749e+02 0 0 0
1944 78 1 0.0000000000000000e+00 -3.6977327354121734e+01 5.0332008983232775e+01 -1.9508506414302505e+02 0 0 0
3169 127 3 0.0000000000000000e+00 -2.9678511761041388e+01 5.6228127592119264e+01 -2.0073564845807735e+02 0 0 0
3649 146 4 0.0000000000000000e+00 3.3177911327301950e+00 4.8608842407809675e+01 -1.9196326706210908e+02 0 0 0
3648 146 4 0.0000000000000000e+00 -2.6179960745431354e+00 5.6117530879978261e+01 -1.9101727837699005e+02 0 0 0
3163 127 3 0.0000000000000000e+00 1.3066535489541527e+01 5.3697206877381980e+01 -2.0105335195818532e+02 0 0 0
585 24 2 0.0000000000000000e+00 2.6746889270892773e+01 5.0502140086544635e+01 -1.9866050943466098e+02 0 0 0
3065 123 4 0.0000000000000000e+00 -8.8374008971333964e+01 6.3821736188628165e+01 -1.9148687430286955e+02 0 0 0
3064 123 4 0.0000000000000000e+00 -7.9256701566044853e+01 5.9847583748459392e+01 -1.9108905879176984e+02 0 0 0
4996 200 4 0.0000000000000000e+00 -6.5779948318506641e+01 6.7261044913951451e+01 -1.9723866162255428e+02 0 0 0
479 20 2 0.0000000000000000e+00 -4.4138837665089113e+01 6.9647344394380909e+01 -1.8927926506277663e+02 0 0 0
3168 127 4 0.0000000000000000e+00 -2.5564713868016092e+01 6.3390285116411818e+01 -1.9464441608399710e+02 0 0 0
3167 127 4 0.0000000000000000e+00 -1.8580915032499867e+01 7.1028283071802761e+01 -1.9522696523294624e+02 0 0 0
3166 127 4 0.0000000000000000e+00 -8.5490539474859055e+00 7.0082859045643914e+01 -1.9229536949236638e+02 0 0 0
3164 127 4 0.0000000000000000e+00 5.2963511461084583e+00 5.9047077019800902e+01 -1.9672790017562880e+02 0 0 0
3165 127 4 0.0000000000000000e+00 7.7999443882498964e-01 6.5560350265073140e+01 -1.9034246305329373e+02 0 0 0
489 20 2 0.0000000000000000e+00 1.4901837110943164e+01 6.9389869115682899e+01 -1.8936985716129013e+02 0 0 0
586 24 2 0.0000000000000000e+00 2.0902973214117182e+01 5.8864065544736256e+01 -1.9650344303862684e+02 0 0 0
3709 149 4 0.0000000000000000e+00 -8.7678744708843254e+01 7.6347015547062668e+01 -2.0109394165259715e+02 0 0 0
3708 149 4 0.0000000000000000e+00 -8.1256265458749908e+01 7.9674061283922384e+01 -1.9381058796700739e+02 0 0 0
2014 81 2 0.0000000000000000e+00 -7.3330984779117699e+01 8.4148336675940328e+01 -2.0081819868490939e+02 0 0 0
2459 99 2 0.0000000000000000e+00 -5.1709844604286658e+01 8.3241052283144526e+01 -1.9370676813820046e+02 0 0 0
478 20 2 0.0000000000000000e+00 -4.0171306432658845e+01 7.7267315264075421e+01 -1.9501334840124125e+02 0 0 0
477 20 2 0.0000000000000000e+00 -3.1452957450823771e+01 8.0608579116526030e+01 -1.9819836721113268e+02 0 0 0
476 20 1 0.0000000000000000e+00 -2.2528350174730651e+01 8.3561614901894188e+01 -2.0158567268003907e+02 0 0 0
3975 159 3 0.0000000000000000e+00 4.9841384575401086e+00 7.7062020318988019e+01 -2.0191041311449763e+02 0 0 0
3974 159 4 0.0000000000000000e+00 3.5746598524099538e+00 7.6503249112148438e+01 -1.9211709569383993e+02 0 0 0
488 20 1 0.0000000000000000e+00 1.4305278278811873e+01 7.7362403290892303e+01 -1.9507206631740868e+02 0 0 0
1215 49 2 0.0000000000000000e+00 2.4628343488970398e+01 -9.1767226745871994e+01 -1.7637714230162331e+02 0 0 0
1216 49 2 0.0000000000000000e+00 1.4953372236830166e+01 -9.0073785418454648e+01 -1.7569795915142183e+02 0 0 0
1214 49 2 0.0000000000000000e+00 3.2358435946328591e+01 -8.9587998437212732e+01 -1.8158045774508412e+02 0 0 0
4388 176 3 0.0000000000000000e+00 3.6101425885875685e+01 -7.9433761050186334e+01 -1.8109653149513628e+02 0 0 0
4387 176 4 0.0000000000000000e+00 2.6491861292019433e+01 -8.0933600793969390e+01 -1.7731018852063903e+02 0 0 0
3271 131 4 0.0000000000000000e+00 1.2847064823361029e+01 -7.1713621010835524e+01 -1.8343831676965999e+02 0 0 0
3270 131 4 0.0000000000000000e+00 1.9602307027941986e+01 -6.5594266506890065e+01 -1.7846523367622555e+02 0 0 0
1445 58 2 0.0000000000000000e+00 3.0247176001158458e+01 -6.9596985143483579e+01 -1.7640565045336703e+02 0 0 0
1444 58 1 0.0000000000000000e+00 2.8851866214550061e+01 -6.9811319283629444e+01 -1.8612245689992054e+02 0 0 0
3269 131 3 0.0000000000000000e+00 2.5870273368676088e+01 -5.9569394694555371e+01 -1.8350577370954730e+02 0 0 0
3263 131 3 0.0000000000000000e+00 -2.7557706741545092e+00 -4.3840934929470116e+01 -1.8213148353943086e+02 0 0 0
3264 131 4 0.0000000000000000e+00 6.3434720848456552e+00 -4.4245775825060889e+01 -1.7653909124404146e+02 0 0 0
2229 90 2 0.0000000000000000e+00 1.2722114921226099e+01 -4.6796148299338419e+01 -1.8411783882393414e+02 0 0 0
3265 131 4 0.0000000000000000e+00 1.5915188757430338e+01 -4.0740381372381570e+01 -1.7554392463909781e+02 0 0 0
3268 131 4 0.0000000000000000e+00 2.8497906835205576e+01 -4.9598736185323929e+01 -1.8326908027930816e+02 0 0 0
3267 131 4 0.0000000000000000e+00 3.4292439144848181e+01 -4.2846243349369217e+01 -1.7958323038766790e+02 0 0 0
3266 131 4 0.0000000000000000e+00 2.5254660945347286e+01 -3.9526771786779264e+01 -1.7703039031058245e+02 0 0 0
94 4 1 0.0000000000000000e+00 -9.0191708761650062e+00 -3.6750466228766491e+01 -1.8844208209772225e+02 0 0 0
95 4 2 0.0000000000000000e+00 -1.4826264686100457e+01 -3.3672911588821421e+01 -1.8077605727099177e+02 0 0 0
3262 131 4 0.0000000000000000e+00 8.2864911905992999e-01 -3.6500037819995498e+01 -1.8829819572411205e+02 0 0 0
4461 179 4 0.0000000000000000e+00 1.4753359240585513e+00 -1.4732005249195126e+01 -1.8714790182357061e+02 0 0 0
4462 179 4 0.0000000000000000e+00 7.6480200408973387e-01 -1.9154172896449232e+01 -1.7786205239104297e+02 0 0 0
3502 141 4 0.0000000000000000e+00 2.6443905588241151e+01 -1.2114602186332739e+01 -1.8530091950168762e+02 0 0 0
3501 141 3 0.0000000000000000e+00 3.1214811848134921e+01 -1.2890689690933032e+01 -1.7708108435490090e+02 0 0 0
521 21 2 0.0000000000000000e+00 1.2195222124946762e+01 -1.9941757726669607e+00 -1.7964544430287677e+02 0 0 0
263 11 1 0.0000000000000000e+00 2.7900915393006024e+01 -2.4991120252651990e+00 -1.7765645470815107e+02 0 0 0
4063 163 3 0.0000000000000000e+00 -3.4552716293403265e+01 1.6225389409285157e+01 -1.7741609568164401e+02 0 0 0
4064 163 4 0.0000000000000000e+00 -4.1111270622209474e+01 1.3488365040572525e+01 -1.8371839313080019e+02 0 0 0
1121 45 2 0.0000000000000000e+00 -2.8030409117871862e+01 6.4743514007970893e+00 -1.8367718135006393e+02 0 0 0
1120 45 2 0.0000000000000000e+00 -2.4798157202653105e+01 1.5552588477560231e+01 -1.8213096224560090e+02 0 0 0
2715 109 4 0.0000000000000000e+00 2.2179829734415852e+00 9.7087440477031990e+00 -1.7842308741929270e+02 0 0 0
522 21 2 0.0000000000000000e+00 1.4593123750064192e+01 3.8019553620832385e+00 -1.8798073109859115e+02 0 0 0
264 11 2 0.0000000000000000e+00 2.9959351203785534e+01 5.5461970966005323e+00 -1.8318201107879909e+02 0 0 0
4073 163 4 0.0000000000000000e+00 -6.1779410784952312e+01 1.8950216964999658e+01 -1.8646782332992566e+02 0 0 0
4074 163 4 0.0000000000000000e+00 -5.9397139409887679e+01 2.5714188719111092e+01 -1.7982210550178110e+02 0 0 0
1617 65 2 0.0000000000000000e+00 -4.7318791463045592e+01 2.0098254226042609e+01 -1.7552651313236416e+02 0 0 0
1119 45 1 0.0000000000000000e+00 -2.6740375652425357e+01 2.3226247179044439e+01 -1.7603432312736078e+02 0 0 0
3154 127 4 0.0000000000000000e+00 1.0406429089226761e+00 2.9970461585815837e+01 -1.8425722468411846e+02 0 0 0
3153 127 4 0.0000000000000000e+00 9.6090839541672359e+00 3.0590981304857223e+01 -1.7872605817803893e+02 0 0 0
581 24 2 0.0000000000000000e+00 1.9035425439384195e+01 2.6586776131400189e+01 -1.8259422784708687e+02 0 0 0
580 24 2 0.0000000000000000e+00 1.3326040616319881e+01 1.9943592741947750e+01 -1.7777539947516277e+02 0 0 0
3061 123 4 0.0000000000000000e+00 -5.9847802146882351e+01 4.2534335811933715e+01 -1.7759173527511396e+02 0 0 0
599 24 2 0.0000000000000000e+00 -2.0361612712510432e+01 3.0811553956929110e+01 -1.7649580952558790e+02 0 0 0
598 24 2 0.0000000000000000e+00 -2.1528500623446689e+01 3.6463342562108863e+01 -1.8465226110174902e+02 0 0 0
583 24 2 0.0000000000000000e+00 2.5673218236805219e+01 3.6161319025633695e+01 -1.8870455157394250e+02 0 0 0
1625 65 1 0.0000000000000000e+00 -9.0023734833392254e+01 4.6880386679742372e+01 -1.8174425193391372e+02 0 0 0
4826 194 3 0.0000000000000000e+00 -7.9151890189317257e+01 4.5068257603915029e+01 -1.8491548308961450e+02 0 0 0
4827 194 4 0.0000000000000000e+00 -7.8846600842867446e+01 4.7845361435312519e+01 -1.7544943020386683e+02 0 0 0
3062 123 4 0.0000000000000000e+00 -6.4396872487348631e+01 4.9048444867802317e+01 -1.8340499831110526e+02 0 0 0
3056 123 4 0.0000000000000000e+00 -3.8389363561545494e+01 5.4742295868594773e+01 -1.8648444117989303e+02 0 0 0
3057 123 3 0.0000000000000000e+00 -4.2877152479447695e+01 5.2836033449560652e+01 -1.7758053309289113e+02 0 0 0
1942 78 2 0.0000000000000000e+00 -2.7818814889984068e+01 4.4711401495489149e+01 -1.7902229015502266e+02 0 0 0
1943 78 2 0.0000000000000000e+00 -3.1400598642811403e+01 4.6708629410499505e+01 -1.8794344848543648e+02 0 0 0
3054 123 4 0.0000000000000000e+00 -2.1139924595978634e+01 5.5863445402397211e+01 -1.7667413785588053e+02 0 0 0
3055 123 4 0.0000000000000000e+00 -3.0623495645724745e+01 5.7721970089768149e+01 -1.8078594771856356e+02 0 0 0
1191 48 2 0.0000000000000000e+00 3.3549375486197204e+00 5.5478253969516061e+01 -1.7660466361349975e+02 0 0 0
491 20 2 0.0000000000000000e+00 2.1053542825482385e+01 5.4353305083116581e+01 -1.7938853020127638e+02 0 0 0
493 20 2 0.0000000000000000e+00 3.4703953853159817e+01 4.5469563021621923e+01 -1.8473599472847826e+02 0 0 0
492 20 2 0.0000000000000000e+00 3.0382686109323124e+01 5.1778560772940729e+01 -1.7882464659757753e+02 0 0 0
3067 123 4 0.0000000000000000e+00 -1.0425766489025368e+02 6.8793610168283095e+01 -1.8005921453395015e+02 0 0 0
3066 123 4 0.0000000000000000e+00 -9.7589836904574611e+01 6.6215071590552796e+01 -1.8685656957697768e+02 0 0 0
4997 200 4 0.0000000000000000e+00 -6.2890116399974346e+01 6.4777820764625517e+01 -1.8781986854053167e+02 0 0 0
4998 200 4 0.0000000000000000e+00 -5.5231510722149132e+01 6.3765562278417200e+01 -1.8157484985367640e+02 0 0 0
2025 81 1 0.0000000000000000e+00 -4.3614350952811591e+01 6.3687335884596159e+01 -1.7693941288782082e+02 0 0 0
480 20 2 0.0000000000000000e+00 -3.3731134214730410e+01 7.1533601715552663e+01 -1.8825217683356883e+02 0 0 0
3647 146 4 0.0000000000000000e+00 -6.2322629195910606e+00 5.9957773746502298e+01 -1.8260867179289031e+02 0 0 0
490 20 2 0.0000000000000000e+00 1.5262081025830497e+01 6.1713414345695298e+01 -1.8244770003654793e+02 0 0 0
2465 99 2 0.0000000000000000e+00 -9.0996977833078503e+01 8.4697312544126447e+01 -1.8096959161268327e+02 0 0 0
3707 149 3 0.0000000000000000e+00 -7.7786779635418668e+01 8.4964421532848519e+01 -1.8655670227753834e+02 0 0 0
2463 99 1 0.0000000000000000e+00 -7.3861113977838841e+01 7.5156755120537269e+01 -1.8379545419544857e+02 0 0 0
2464 99 2 0.0000000000000000e+00 -8.3829501079370573e+01 7.7811978691577735e+01 -1.8323028869761600e+02 0 0 0
2462 99 2 0.0000000000000000e+00 -6.4699636901873063e+01 7.8678535980001172e+01 -1.8456724679119495e+02 0 0 0
2460 99 2 0.0000000000000000e+00 -5.0926712995006717e+01 8.3841135415765038e+01 -1.8370232400039677e+02 0 0 0
2461 99 2 0.0000000000000000e+00 -5.5634585397565395e+01 7.4495702618515807e+01 -1.8265750987597713e+02 0 0 0
481 20 2 0.0000000000000000e+00 -2.5481434300343011e+01 7.2277376463352937e+01 -1.8318111998589040e+02 0 0 0
482 20 1 0.0000000000000000e+00 -2.2391386579775808e+01 8.1300927551031805e+01 -1.8557320264086226e+02 0 0 0
3973 159 4 0.0000000000000000e+00 -1.8120556910559376e+00 7.6860872819251171e+01 -1.8387940238257940e+02 0 0 0
3972 159 4 0.0000000000000000e+00 -2.7364756385095035e+00 8.2538816071804362e+01 -1.7556422554341793e+02 0 0 0
1217 49 2 0.0000000000000000e+00 8.3804324385866469e+00 -9.0768977987109949e+01 -1.6867301070173957e+02 0 0 0
4385 176 4 0.0000000000000000e+00 8.1878433611038286e+00 -8.0562591071543707e+01 -1.6808646719843111e+02 0 0 0
4386 176 4 0.0000000000000000e+00 1.7898154960730732e+01 -8.2146160983852567e+01 -1.7211817544765483e+02 0 0 0
4383 176 4 0.0000000000000000e+00 -6.4348739812256754e+00 -6.7642717072762281e+01 -1.6320723732489111e+02 0 0 0
4384 176 4 0.0000000000000000e+00 -2.0172380818172869e-01 -7.5568562044234895e+01 -1.6529061874183353e+02 0 0 0
1446 58 2 0.0000000000000000e+00 2.8978097490896889e+01 -7.5415674141106720e+01 -1.6835355955007066e+02 0 0 0
2226 90 1 0.0000000000000000e+00 1.8489542495975140e+00 -6.3433023467672101e+01 -1.6516999580423234e+02 0 0 0
2227 90 2 0.0000000000000000e+00 8.4223556294472797e+00 -5.7284048215201977e+01 -1.6827111348578512e+02 0 0 0
2228 90 2 0.0000000000000000e+00 1.2283262270138819e+01 -5.1044281707129223e+01 -1.7489577878090199e+02 0 0 0
258 11 2 0.0000000000000000e+00 5.6752613933657461e+00 -4.0580875004682134e+01 -1.6326876879955586e+02 0 0 0
97 4 2 0.0000000000000000e+00 -2.6709836566487382e+01 -3.4006071008299863e+01 -1.6458653640834839e+02 0 0 0
96 4 2 0.0000000000000000e+00 -1.9643708588694007e+01 -3.2794997203733928e+01 -1.7226148464533065e+02 0 0 0