LAMMPS (5 Jun 2019)
Reading restart file ...
  restart file = 5 Jun 2019, LAMMPS = 5 Jun 2019
  restoring atom style full from restart
  orthogonal box = (-500 -500 -500) to (500 500 500)
  1 by 2 by 5 MPI processor grid
  restoring pair style lj/cut from restart
  restoring bond style harmonic from restart
  restoring angle style cosine from restart
  5000 atoms
  5225 bonds
  4600 angles
Finding 1-2 1-3 1-4 neighbors ...
  special bond factors lj:   1          1          1         
  special bond factors coul: 0          0          0         
  3 = max # of 1-2 neighbors
  4 = max # of 1-3 neighbors
  8 = max # of 1-4 neighbors
  16 = max # of special neighbors
  special bonds CPU = 0.0112245 secs
  read_restart CPU = 0.0913964 secs
1000 atoms in group rxnSites
Neighbor list info ...
  update every 1 steps, delay 1 steps, check yes
  max neighbors/atom: 2000, page size: 100000
  master list distance cutoff = 26.9
  ghost atom cutoff = 26.9
  binsize = 13.45, bins = 75 75 75
  2 neighbor lists, perpetual/occasional/extra = 1 1 0
  (1) pair lj/cut, perpetual
      attributes: half, newton on
      pair build: half/bin/newton
      stencil: half/bin/3d/newton
      bin: standard
  (2) fix bond/create/random, occasional, copy from (1)
      attributes: half, newton on
      pair build: copy
      stencil: none
      bin: none
Setting up Verlet run ...
  Unit style    : real
  Current step  : 300000000
  Time step     : 25
WARNING: Inconsistent image flags (../domain.cpp:784)
Per MPI rank memory allocation (min/avg/max) = 10.48 | 10.74 | 11.41 Mbytes
Step E_pair PotEng KinEng E_bond E_angle Temp Bonds 
300000000   -946.67827    3417.4022    4689.9337    1540.9744     2823.106    314.73806     5225 
301000000   -948.11998    3393.9038    4642.8906    1507.2834    2834.7404    311.58103     5219 
302000000   -931.33782    3446.1484    4591.9455    1571.2623    2806.2239    308.16215     5219 
303000000   -964.66431    3387.4213    4541.2426    1544.6913    2807.3943    304.75951     5212 
304000000   -919.40128    3377.8755    4637.7987    1503.5833    2793.6935    311.23932     5208 
305000000   -952.76327    3485.7025    4579.2749    1571.0755    2867.3903    307.31183     5205 
306000000   -923.62036    3502.3355    4637.1057    1626.1274    2799.8284    311.19281     5210 
307000000   -966.07644    3451.1945    4687.1659    1560.2578    2857.0131    314.55231     5213 
308000000   -994.63649    3451.4026    4559.3222      1580.98    2865.0591    305.97282     5210 
309000000   -945.13473     3435.422    4665.9595    1539.9652    2840.5915    313.12917     5205 
310000000   -973.27901    3484.1918    4563.7763    1616.4228     2841.048    306.27173     5210 
311000000   -954.88246    3458.2147    4720.0496    1602.2566    2810.8406    316.75912     5200 
312000000   -1010.6007     3340.975    4511.6072    1558.8011    2792.7746     302.7707     5203 
313000000   -972.94712    3324.5959    4704.6948    1505.1432    2792.3998    315.72867     5216 
314000000   -1003.2421    3416.6376    4675.8504    1542.0041    2877.8756    313.79294     5203 
315000000   -994.69191    3364.2699    4566.9435    1555.2833    2803.6785    306.48427     5216 
316000000   -1003.5335    3290.9067     4679.343    1513.8138    2780.6264    314.02733     5226 
317000000   -992.95152    3340.5996    4550.2624     1555.438    2778.1132    305.36482     5227 
318000000   -990.18307    3367.2329    4584.2219    1529.1307    2828.2853    307.64382     5222 
319000000    -1042.312    3354.5544    4546.9094    1573.2945    2823.5719     305.1398     5228 
320000000    -1015.025    3278.6261    4669.4244    1520.6106    2773.0405    313.36169     5216 
321000000   -1002.2486    3350.8274    4587.1986    1531.8354    2821.2406    307.84358     5219 
322000000   -1029.2306    3337.4973    4602.7664     1563.847    2802.8809    308.88832     5219 
323000000   -1024.6241    3383.0812    4594.2207    1551.5044    2856.2008    308.31483     5224 
324000000   -1003.9624    3398.9914    4590.2848    1538.3361    2864.6178    308.05069     5220 
325000000   -982.72245    3372.3808    4639.7125    1512.5694    2842.5339    311.36775     5217 
326000000   -987.73129    3432.0864    4688.1389    1603.1221    2816.6956    314.61761     5218 
327000000   -1013.5874    3299.3241     4665.111    1545.7742    2767.1373    313.07223     5214 
328000000   -986.56232    3347.3849    4709.6243    1542.1718    2791.7754    316.05948     5213 
329000000   -1008.7449    3381.7196    4618.7113    1543.1044    2847.3602    309.95838     5208 
330000000   -1009.9326    3308.2575    4560.2591    1486.1267    2832.0634    306.03569     5205 
331000000   -982.79491    3353.7958    4667.6586    1517.4327     2819.158    313.24319     5222 
332000000   -958.83836    3418.5072    4662.2905    1569.3943    2807.9513    312.88294     5204 
333000000    -926.6834    3458.5384    4579.4118    1528.3143    2856.9075    307.32102     5210 
334000000   -943.48673     3490.119    4634.3984    1539.4039    2894.2018    311.01112     5215 
335000000   -940.28054    3462.5734    4603.2142    1549.6277    2853.2263    308.91838     5216 
336000000   -952.29814    3470.9725    4670.5619    1563.6978    2859.5728    313.43803     5212 
337000000   -895.11507    3437.5281    4592.7961    1512.8938    2819.7493    308.21922     5215 
338000000   -919.66582    3454.5201     4642.477    1520.2295    2853.9564    311.55328     5213 
339000000   -912.13609    3441.7374     4632.931     1561.714    2792.1595    310.91265     5210 
340000000    -949.2679    3553.7684    4741.2122    1641.8427    2861.1936    318.17932     5207 
341000000   -972.70352    3356.8855    4670.1151    1535.8233    2793.7657    313.40805     5218 
342000000   -971.86004    3339.7392    4626.8915     1520.863    2790.7362    310.50735     5209 
343000000   -954.50806    3469.4383    4625.2016     1561.851    2862.0954    310.39394     5207 
344000000   -918.38888    3404.1162    4585.4635    1551.6293    2770.8758    307.72714     5210 
345000000   -916.49069    3422.3697    4648.5625    1551.6353     2787.225    311.96167     5213 
346000000    -940.9861     3451.085    4737.4238    1557.8104    2834.2608    317.92509     5219 
347000000   -960.85867    3422.5533    4682.7904      1552.54     2830.872    314.25868     5217 
348000000   -1006.0258    3311.4688    4587.8312     1525.833    2791.6615    307.88603     5215 
349000000   -935.62438     3340.327    4586.9526     1496.193    2779.7585    307.82707     5207 
350000000   -947.05386    3438.8376    4626.8142    1583.7493    2802.1422    310.50215     5195 
351000000   -902.63658    3460.7909    4645.8376    1510.5645     2852.863     311.7788     5199 
352000000   -931.73138    3447.1653    4569.7248    1566.3063    2812.5904    306.67093     5210 
353000000   -907.60529    3465.0575    4627.2997     1546.572    2826.0908    310.53474     5207 
354000000   -895.74175    3517.6571    4644.6149    1570.8873    2842.5115    311.69675     5206 
355000000   -928.11098    3494.3601    4602.0927    1527.5171    2894.9539    308.84311     5208 
356000000    -943.2034    3415.3264    4650.9833    1549.8562    2808.6736    312.12413     5212 
357000000   -964.69018    3355.1156    4674.0825    1518.9882    2800.8175     313.6743     5207 
358000000   -956.46595    3468.8265    4537.7657    1551.0797    2874.2128    304.52618     5211 
359000000    -882.2687    3430.7957    4592.3828     1513.556    2799.5085    308.19149     5210 
360000000   -912.32098    3415.9209    4651.1283    1515.0824    2813.1594    312.13386     5206 
361000000   -927.35156    3332.2457    4599.2088    1492.4173      2767.18    308.64958     5217 
362000000   -940.06209    3477.6176    4516.4383    1549.0073    2868.6724    303.09491     5207 
363000000   -924.99219    3415.2128     4609.158    1532.9629    2807.2422    309.31726     5200 
364000000    -916.8698    3472.1039    4678.2263    1532.3366    2856.6371    313.95239     5218 
365000000   -910.09759    3343.0437    4577.5663    1520.1583     2732.983    307.19717     5209 
366000000   -956.00075    3366.7695     4629.565    1493.5773    2829.1929    310.68676     5211 
367000000   -949.33755    3462.6371    4664.2139     1561.231    2850.7437    313.01202     5210 
368000000   -957.40568    3440.4233    4484.4475    1541.6384    2856.1906    300.94803     5213 
369000000   -920.67962    3494.7377    4642.2466    1529.0605    2886.3568    311.53781     5209 
370000000    -913.0912    3461.3257    4684.3554    1495.6993    2878.7177    314.36371     5208 
371000000   -924.63376    3464.2792    4642.2963    1552.8103    2836.1027    311.54115     5218 
372000000   -947.67834     3437.676    4580.1675    1520.6781    2864.6763    307.37173     5212 
373000000   -946.05067    3417.8048    4563.1498    1568.7826    2795.0729    306.22968     5215 
374000000   -957.19157    3472.7501    4599.8613    1566.3612    2863.5804    308.69337     5213 
375000000   -972.69959    3425.3362    4542.1702    1560.5228     2837.513    304.82176     5214 
376000000   -971.91304    3358.0084    4588.4557    1531.3656    2798.5558    307.92795     5212 
377000000   -974.59443    3400.2483    4614.8553    1538.2911    2836.5516     309.6996     5211 
378000000   -948.99119    3401.6555    4592.6658    1514.8981    2835.7486    308.21048     5203 
379000000   -951.69453    3464.8823    4604.2356     1537.019    2879.5579    308.98693     5213 
380000000   -990.14117    3352.9558    4668.6604    1497.0037    2846.0933    313.31043     5206 
381000000   -985.54384    3325.1046    4622.5602    1509.5727    2801.0757    310.21667     5211 
382000000   -970.13166    3476.3066    4534.9736    1575.9513    2870.4869     304.3388     5200 
383000000   -998.01751    3373.3757    4699.8139    1531.5403    2839.8529    315.40111     5214 
384000000   -948.78341    3444.9197    4701.4995    1550.4763    2843.2268    315.51423     5210 
385000000    -975.2942    3425.1933    4582.8043    1530.2079    2870.2796    307.54868     5205 
386000000   -985.76529    3455.8487    4529.7753    1575.8562    2865.7577    303.98994     5214 
387000000   -977.72886    3390.4492    4567.2681    1544.7866    2823.3915    306.50606     5216 
388000000   -941.85408    3424.3581    4592.5252    1542.6809    2823.5313    308.20105     5212 
389000000   -961.45802    3342.1011     4621.301    1509.3338    2794.2253    310.13217     5210 
390000000   -955.62456    3401.5564    4599.9262    1528.3749     2828.806    308.69772     5217 
391000000   -983.49767    3431.3161    4559.4412    1567.1571    2847.6566     305.9808     5221 
392000000   -966.86048    3399.1768     4612.686    1537.4452    2828.5921    309.55403     5218 
393000000   -1015.5588    3387.8766    4614.3016    1547.1279    2856.3075    309.66245     5205 
394000000   -979.27933    3391.4444    4583.0965    1564.4205    2806.3032     307.5683     5211 
395000000    -921.9571    3418.2443    4639.2888    1515.4069    2824.7945    311.33932     5203 
396000000   -968.14499    3441.9494     4646.259     1547.288    2862.8064    311.80708     5206 
397000000   -1002.1766    3312.8295    4713.1682    1477.5852     2837.421    316.29731     5200 
398000000   -968.55155    3426.8937    4626.6759    1543.4253    2852.0199    310.49288     5212 
399000000   -961.02662     3370.999    4615.2813    1527.9527    2804.0729    309.72819     5224 
400000000   -944.45667    3411.8183    4683.4741    1603.6171    2752.6578    314.30456     5208 
Loop time of 18480.7 on 10 procs for 100000000 steps with 5000 atoms

Performance: 11687.876 ns/day, 0.002 hours/ns, 5411.054 timesteps/s
99.7% CPU use with 10 MPI tasks x no OpenMP threads

MPI task timing breakdown:
Section |  min time  |  avg time  |  max time  |%varavg| %total
---------------------------------------------------------------
Pair    | 4777.9     | 5253.5     | 6066       | 578.9 | 28.43
Bond    | 1570.8     | 1580.1     | 1605.3     |  28.7 |  8.55
Neigh   | 2709.2     | 2738.6     | 2753.3     |  21.2 | 14.82
Comm    | 3769.6     | 4661       | 5379.8     | 762.1 | 25.22
Output  | 0.68691    | 0.68717    | 0.68732    |   0.0 |  0.00
Modify  | 3362.7     | 3411.2     | 3529.8     |  82.7 | 18.46
Other   |            | 835.7      |            |       |  4.52

Nlocal:    500 ave 537 max 468 min
Histogram: 1 1 1 0 2 3 1 0 0 1
Nghost:    545.1 ave 660 max 356 min
Histogram: 1 0 0 0 3 1 1 0 2 2
Neighs:    5066.6 ave 6623 max 4264 min
Histogram: 3 3 0 0 1 1 0 0 1 1

Total # of neighbors = 50666
Ave neighs/atom = 10.1332
Ave special neighs/atom = 7.1284
Neighbor list builds = 5271046
Dangerous builds = 0
System init for write_restart ...
Total wall time: 5:08:01
