LAMMPS (5 Jun 2019)
Reading restart file ...
  restart file = 5 Jun 2019, LAMMPS = 5 Jun 2019
  restoring atom style full from restart
  orthogonal box = (-500 -500 -500) to (500 500 500)
  1 by 2 by 5 MPI processor grid
  restoring pair style lj/cut from restart
  restoring bond style harmonic from restart
  restoring angle style cosine from restart
  5000 atoms
  5225 bonds
  4600 angles
Finding 1-2 1-3 1-4 neighbors ...
  special bond factors lj:   1          1          1         
  special bond factors coul: 0          0          0         
  3 = max # of 1-2 neighbors
  4 = max # of 1-3 neighbors
  8 = max # of 1-4 neighbors
  16 = max # of special neighbors
  special bonds CPU = 0.0126632 secs
  read_restart CPU = 0.102852 secs
1000 atoms in group rxnSites
Neighbor list info ...
  update every 1 steps, delay 1 steps, check yes
  max neighbors/atom: 2000, page size: 100000
  master list distance cutoff = 26.9
  ghost atom cutoff = 26.9
  binsize = 13.45, bins = 75 75 75
  2 neighbor lists, perpetual/occasional/extra = 1 1 0
  (1) pair lj/cut, perpetual
      attributes: half, newton on
      pair build: half/bin/newton
      stencil: half/bin/3d/newton
      bin: standard
  (2) fix bond/create/random, occasional, copy from (1)
      attributes: half, newton on
      pair build: copy
      stencil: none
      bin: none
Setting up Verlet run ...
  Unit style    : real
  Current step  : 300000000
  Time step     : 25
WARNING: Inconsistent image flags (../domain.cpp:784)
Per MPI rank memory allocation (min/avg/max) = 10.48 | 10.74 | 11.41 Mbytes
Step E_pair PotEng KinEng E_bond E_angle Temp Bonds 
300000000   -946.67827    3417.4022    4689.9337    1540.9744     2823.106    314.73806     5225 
301000000   -969.22246    3326.3063    4607.3988    1552.6005    2742.9282    309.19921     5222 
302000000   -976.32316    3416.2541    4577.0412    1591.8208    2800.7565    307.16193     5220 
303000000   -963.52489    3372.8237    4656.1083    1527.1539    2809.1947    312.46806     5219 
304000000   -902.10969     3426.202    4595.4182    1540.3068    2788.0049    308.39519     5200 
305000000   -955.87827    3453.0337    4610.5873    1537.5581    2871.3538    309.41318     5213 
306000000   -928.08545    3419.7943    4599.0224    1563.7222    2784.1575    308.63707     5209 
307000000   -924.12838    3402.5819    4568.5932    1524.1679    2802.5424    306.59499     5202 
308000000   -966.95474    3401.9043    4593.6985    1520.6291    2848.2299    308.27979     5214 
309000000   -948.52512    3407.7302    4569.6456    1514.3773     2841.878    306.66561     5210 
310000000   -1001.6416    3313.6705    4623.3502    1481.4661     2833.846    310.26969     5207 
311000000   -978.24626    3411.3694    4733.0113    1551.2397     2838.376    317.62897     5208 
312000000   -976.03662    3463.6956    4593.4269    1562.2486    2877.4836    308.26156     5215 
313000000   -985.70002    3417.4639    4445.9555    1534.5546    2868.6093    298.36486     5215 
314000000   -993.47064    3375.1666    4734.3715    1503.5294    2865.1079    317.72025     5215 
315000000   -975.12979    3461.5715    4532.8299    1581.0001    2855.7012    304.19494     5210 
316000000   -995.44536     3407.929     4594.267    1536.8915    2866.4829    308.31794     5207 
317000000   -940.57166    3441.0025    4712.9543    1537.7707    2843.8035    316.28296     5199 
318000000   -935.11282    3429.2701    4585.1427     1497.761    2866.6219    307.70561     5218 
319000000   -933.84419      3353.64    4559.8445    1495.7117    2791.7725    306.00787     5201 
320000000    -944.1993    3357.2373    4674.9383    1499.1542    2802.2824    313.73173     5210 
321000000   -938.75011    3348.0439     4557.904    1453.3866    2833.4074    305.87764     5212 
322000000   -989.55209    3416.0524     4617.935     1540.078    2865.5265    309.90628     5218 
323000000   -958.44954    3355.6721    4717.5625    1549.7036     2764.418    316.59221     5216 
324000000   -968.88707    3384.5025    4694.6306    1504.6686     2848.721    315.05327     5207 
325000000   -919.30773    3418.2354    4623.7793    1543.7394    2793.8037    310.29849     5203 
326000000   -946.85078    3419.4013    4664.2665    1556.4634    2809.7887    313.01555     5210 
327000000   -988.36089    3414.2139    4601.6361    1505.7438    2896.8311    308.81247     5216 
328000000   -948.09012    3528.9013    4607.2978    1546.3853    2930.6061    309.19243     5214 
329000000   -975.36931     3365.191    4520.0911    1560.4136    2780.1468    303.34004     5221 
330000000   -969.30168    3483.5859    4625.9743    1583.9824    2868.9052    310.44579     5220 
331000000   -971.35075    3413.3843    4521.1264    1527.1194    2857.6157    303.40952     5222 
332000000   -930.28728    3412.1711    4679.8137    1488.9767    2853.4818    314.05891     5215 
333000000   -967.02306    3414.9306    4665.1461    1534.2811    2847.6725    313.07458     5226 
334000000   -974.57001    3350.7674    4645.1302    1482.8945    2842.4429    311.73133     5204 
335000000   -989.10729    3332.9141    4638.3773    1512.7284     2809.293    311.27815     5217 
336000000   -966.47272     3473.189    4676.4295    1568.2337    2871.4281     313.8318     5217 
337000000   -953.73854    3418.3764    4563.8686    1579.7666    2792.3483    306.27792     5222 
338000000   -987.65794     3318.557    4642.0967    1547.0392    2759.1758    311.52776     5222 
339000000   -942.69019    3384.4545    4621.4115    1481.9287     2845.216    310.13958     5213 
340000000   -946.46631    3382.6755    4585.3283      1538.98    2790.1617    307.71807     5215 
341000000   -969.05539    3341.2128    4574.8847    1494.3573    2815.9109     307.0172     5216 
342000000   -951.27643     3494.274    4652.8081    1574.2006    2871.3498    312.24659     5210 
343000000   -961.98211    3367.2839    4640.7694    1516.5785    2812.6875    311.43868     5202 
344000000   -953.61365    3551.1636    4605.3853    1611.5587    2893.2186    309.06408     5202 
345000000   -950.11903    3401.1846    4578.2621    1531.0894    2820.2142    307.24386     5217 
346000000   -941.30631    3413.0772    4591.9822    1558.7523    2795.6312    308.16461     5223 
347000000   -961.04677    3482.3892    4735.6705    1556.5257    2886.9103    317.80742     5209 
348000000   -982.51299    3396.6821    4581.1787    1573.0083    2806.1867    307.43959     5224 
349000000   -1010.8198    3340.7199    4615.5069    1515.3511    2836.1886    309.74333     5215 
350000000   -1005.9959    3368.3339    4657.3623    1518.9628    2855.3671    312.55222     5213 
351000000   -956.58406    3444.5277    4616.1452    1487.6246    2913.4872    309.78617     5231 
352000000   -932.69795     3419.467    4621.6129     1481.647    2870.5179     310.1531     5213 
353000000   -943.08648    3489.5332     4616.884    1547.9492    2884.6705    309.83575     5220 
354000000    -978.1454    3405.2037    4589.8256    1501.8899    2881.4591    308.01988     5219 
355000000   -916.02402    3415.6764    4638.4593    1570.0965    2761.6039    311.28365     5206 
356000000   -929.17917       3444.6    4627.9827    1556.0784    2817.7008    310.58058     5205 
357000000   -933.74325    3424.2879    4594.8122    1514.0825    2843.9487    308.35452     5203 
358000000   -989.38589     3287.278    4583.4476    1506.8657    2769.7982    307.59186     5208 
359000000   -952.25126    3360.1527    4622.7254     1521.579     2790.825    310.22776     5204 
360000000   -974.99141    3338.7803    4552.4967    1482.3878     2831.384    305.51476     5206 
361000000   -971.50627    3304.9211    4692.7882    1535.6621    2740.7653    314.92963     5214 
362000000   -986.02308    3354.7583    4598.4834    1523.2312    2817.5502     308.6009     5208 
363000000   -987.91827    3352.7996    4660.9797    1545.2275    2795.4903    312.79498     5208 
364000000   -975.97987    3360.1632    4668.4793    1515.0802    2821.0628    313.29827     5215 
365000000   -982.89748    3420.5072    4555.4025    1562.0637     2841.341    305.70977     5218 
366000000   -974.84497    3374.3719    4619.2503     1496.588    2852.6289    309.99455     5211 
367000000   -1022.7809    3349.2815     4629.574      1567.05    2805.0124    310.68736     5210 
368000000   -1048.2731    3327.9973    4575.0875    1527.3023    2848.9681    307.03081     5209 
369000000   -1016.8978    3380.1159    4594.5548    1519.0495    2877.9642    308.33725     5214 
370000000   -1028.9939    3341.8399    4627.4968    1558.7203    2812.1135    310.54797     5212 
371000000   -1002.9223    3362.7859    4584.6595    1526.8068    2838.9014    307.67319     5212 
372000000    -1045.741      3401.28    4643.5972    1564.7669     2882.254    311.62845     5210 
373000000   -1050.9322    3291.6709    4693.4205    1499.3629    2843.2402    314.97206     5213 
374000000    -954.4542    3415.4791    4573.3758    1546.1464     2823.787    306.91594     5225 
375000000   -984.84293    3342.1443    4666.6865    1525.0181    2801.9691    313.17796     5224 
376000000   -1016.7465    3392.4384    4599.6543    1568.7289     2840.456    308.67947     5230 
377000000   -1014.0059    3356.7432    4704.2269    1525.3016    2845.4475    315.69727     5222 
378000000   -1014.8234    3379.4642    4666.5593    1499.0886    2895.1991    313.16942     5216 
379000000   -1011.2029    3360.8983    4618.5239    1516.4999    2855.6013     309.9458     5220 
380000000   -1021.0247    3297.4036    4587.7863    1500.4913     2817.937    307.88302     5218 
381000000   -1027.2384    3337.1338    4701.3101    1565.3822      2798.99    315.50152     5221 
382000000   -986.05367    3392.6465     4615.571    1512.3248    2866.3754    309.74763     5218 
383000000   -990.66219    3308.4747     4613.339    1510.8862    2788.2508    309.59784     5220 
384000000   -1030.6091    3350.7747    4667.5632    1531.6253    2849.7585    313.23679     5230 
385000000   -1029.5623    3325.1832    4585.3621    1524.9873    2829.7583    307.72034     5217 
386000000   -1013.7822    3405.3943     4696.771     1501.455    2917.7215    315.19691     5221 
387000000   -1042.1845    3193.9323     4702.118    1514.4445    2721.6724    315.55574     5228 
388000000   -1029.5448    3336.1868    4579.3335    1494.6792    2871.0523    307.31576     5220 
389000000   -996.66093     3306.506    4581.6616    1511.2609     2791.906      307.472     5212 
390000000   -976.00252    3458.9186    4697.9439    1560.3618    2874.5593    315.27562     5225 
391000000    -942.4579    3268.5545    4692.8192    1500.4624      2710.55    314.93171     5221 
392000000   -1000.9838    3422.8934    4650.3455    1585.4906    2838.3865    312.08133     5213 
393000000   -969.23486    3439.1435     4608.508    1572.6755    2835.7028    309.27364     5222 
394000000   -1014.9352    3427.5356    4616.0009    1582.8394    2859.6315    309.77649     5218 
395000000   -987.22406    3346.9496     4612.377    1477.9865    2856.1872    309.53329     5217 
396000000   -975.10815    3363.6388    4587.4352    1532.3925    2806.3545    307.85946     5217 
397000000   -970.72243    3508.7977    4665.7712     1567.451    2912.0691    313.11653     5213 
398000000   -984.85248    3398.9764    4539.0421    1552.7071    2831.1218    304.61183     5208 
399000000   -984.80761    3390.8206    4561.1408    1530.3243    2845.3039    306.09486     5215 
400000000   -999.16996    3361.3024    4525.3154    1501.3108    2859.1616    303.69065     5216 
Loop time of 19158.5 on 10 procs for 100000000 steps with 5000 atoms

Performance: 11274.370 ns/day, 0.002 hours/ns, 5219.616 timesteps/s
99.7% CPU use with 10 MPI tasks x no OpenMP threads

MPI task timing breakdown:
Section |  min time  |  avg time  |  max time  |%varavg| %total
---------------------------------------------------------------
Pair    | 4857.6     | 5280.5     | 6044.3     | 540.6 | 27.56
Bond    | 1526       | 1566.3     | 1587.5     |  43.3 |  8.18
Neigh   | 2730.6     | 2751.1     | 2770.5     |  23.5 | 14.36
Comm    | 4249.4     | 5112.9     | 5900.6     | 708.9 | 26.69
Output  | 0.59354    | 0.59383    | 0.59399    |   0.0 |  0.00
Modify  | 3427.3     | 3497.6     | 3525.9     |  45.4 | 18.26
Other   |            | 949.5      |            |       |  4.96

Nlocal:    500 ave 524 max 446 min
Histogram: 1 0 0 0 0 2 1 1 3 2
Nghost:    579.6 ave 794 max 437 min
Histogram: 1 1 3 2 0 1 0 0 0 2
Neighs:    5206.5 ave 6505 max 3892 min
Histogram: 1 0 1 3 0 1 1 2 0 1

Total # of neighbors = 52065
Ave neighs/atom = 10.413
Ave special neighs/atom = 7.1816
Neighbor list builds = 5272065
Dangerous builds = 0
System init for write_restart ...
Total wall time: 5:19:18
