LAMMPS (5 Jun 2019)
Reading restart file ...
  restart file = 5 Jun 2019, LAMMPS = 5 Jun 2019
  restoring atom style full from restart
  orthogonal box = (-500 -500 -500) to (500 500 500)
  1 by 2 by 5 MPI processor grid
  restoring pair style lj/cut from restart
  restoring bond style harmonic from restart
  restoring angle style cosine from restart
  5000 atoms
  5225 bonds
  4600 angles
Finding 1-2 1-3 1-4 neighbors ...
  special bond factors lj:   1          1          1         
  special bond factors coul: 0          0          0         
  3 = max # of 1-2 neighbors
  4 = max # of 1-3 neighbors
  8 = max # of 1-4 neighbors
  16 = max # of special neighbors
  special bonds CPU = 0.00943707 secs
  read_restart CPU = 0.0892298 secs
1000 atoms in group rxnSites
Neighbor list info ...
  update every 1 steps, delay 1 steps, check yes
  max neighbors/atom: 2000, page size: 100000
  master list distance cutoff = 26.9
  ghost atom cutoff = 26.9
  binsize = 13.45, bins = 75 75 75
  2 neighbor lists, perpetual/occasional/extra = 1 1 0
  (1) pair lj/cut, perpetual
      attributes: half, newton on
      pair build: half/bin/newton
      stencil: half/bin/3d/newton
      bin: standard
  (2) fix bond/create/random, occasional, copy from (1)
      attributes: half, newton on
      pair build: copy
      stencil: none
      bin: none
Setting up Verlet run ...
  Unit style    : real
  Current step  : 300000000
  Time step     : 25
WARNING: Inconsistent image flags (../domain.cpp:784)
Per MPI rank memory allocation (min/avg/max) = 10.48 | 10.74 | 11.41 Mbytes
Step E_pair PotEng KinEng E_bond E_angle Temp Bonds 
300000000   -946.67827    3417.4022    4689.9337    1540.9744     2823.106    314.73806     5225 
301000000   -979.25042    3361.9541    4633.7547    1534.1466    2807.0579    310.96793     5226 
302000000   -952.65138    3471.7749     4554.631    1548.2354    2876.1909    305.65799     5219 
303000000    -974.3876    3405.4477     4597.973    1481.6565    2898.1788    308.56664     5219 
304000000   -984.92015    3345.2019    4672.9478    1504.8722    2825.2498    313.59815     5202 
305000000   -979.79551     3434.906    4630.5622    1568.9819    2845.7196    310.75368     5218 
306000000   -1043.4491    3372.1027    4607.1103    1557.6883    2857.8635    309.17984     5222 
307000000   -1017.2582    3392.5997     4557.783    1570.0095    2839.8485    305.86952     5227 
308000000   -1006.5964    3390.0416    4544.4885    1528.3903    2868.2477    304.97734     5215 
309000000   -994.55128    3388.1358    4659.6613    1534.1217    2848.5653     312.7065     5217 
310000000   -995.79578    3305.6696    4675.1541    1460.2476    2841.2178    313.74621     5212 
311000000   -1003.3134     3393.833    4704.2871    1531.6986    2865.4478    315.70131     5216 
312000000    -960.9832    3324.3456    4569.7929    1503.4231    2781.9057     306.6755     5224 
313000000   -1007.1888    3321.6986    4672.7787    1505.0052    2823.8822     313.5868     5216 
314000000   -1003.0282    3315.7599    4668.9837    1519.2551     2799.533    313.33212     5218 
315000000   -944.77159    3458.5961    4680.5694    1533.2129    2870.1548    314.10963     5201 
316000000   -956.56964    3340.1752     4719.995    1532.8322    2763.9126    316.75545     5205 
317000000   -1024.7032    3367.0317    4616.3505    1566.2604    2825.4745    309.79995     5209 
318000000   -945.72439    3383.4931    4483.5059    1535.7649    2793.4526    300.88484     5198 
319000000   -931.57138    3463.2134    4624.3164     1588.267    2806.5178    310.33453     5213 
320000000   -956.49583    3394.6363    4644.1509    1508.0714    2843.0608    311.66561     5206 
321000000   -942.57273     3279.765    4571.5939     1491.516    2730.8217    306.79636     5210 
322000000   -975.28302    3334.3452    4646.3924    1527.1993    2782.4289    311.81603     5213 
323000000   -899.52539    3461.0911    4669.3675    1555.7124    2804.9042    313.35788     5207 
324000000   -927.86434    3482.2301    4620.1166    1527.5139    2882.5806    310.05269     5208 
325000000   -940.85407    3447.6725    4620.0738    1547.1386     2841.388    310.04981     5214 
326000000   -925.05092    3459.7969    4619.6259    1561.5474    2823.3004    310.01976     5217 
327000000   -952.19968    3473.6465    4592.0255    1545.9924    2879.8538    308.16751     5215 
328000000   -932.76118    3465.7099    4714.8834    1554.0698    2844.4013    316.41242     5208 
329000000   -934.44994    3496.2023    4664.1714    1543.8396    2886.8126    313.00917     5217 
330000000   -933.37161    3436.8846    4510.6612    1522.7868    2847.4694    302.70721     5199 
331000000   -928.97398    3473.6492    4576.9653    1552.5861    2850.0371    307.15683     5210 
332000000   -912.18983    3458.1928    4596.5684    1508.1533    2862.2294    308.47239     5210 
333000000    -931.1101    3418.1911    4629.1269    1544.9657    2804.3354    310.65736     5218 
334000000   -947.96405     3480.023    4596.9379    1526.8111     2901.176    308.49718     5220 
335000000    -982.0841    3440.2646    4627.0316    1560.3302    2862.0185    310.51674     5222 
336000000   -975.69247    3416.1524     4686.772    1524.8018     2867.043    314.52588     5216 
337000000   -1019.2065    3352.3894    4595.2439    1460.0514    2911.5445     308.3835     5223 
338000000   -969.22211    3291.9512    4663.4762    1513.7465    2747.4268    312.96252     5212 
339000000   -968.82534    3438.4861     4581.021    1622.2215    2785.0899    307.42901     5217 
340000000    -977.0084    3286.9753    4562.8632    1465.1017     2798.882    306.21045     5210 
341000000   -960.98868    3374.4844     4677.424    1525.7757    2809.6974    313.89855     5223 
342000000   -996.29308    3300.2219      4691.56    1477.7277    2818.7874     314.8472     5218 
343000000   -1032.6326    3288.7339    4572.6279    1497.2118    2824.1548    306.86575     5215 
344000000   -996.21945    3378.0283    4618.3461    1511.4964    2862.7513    309.93387     5223 
345000000   -1026.4386    3334.3756    4673.5997    1504.4809    2856.3334    313.64189     5204 
346000000   -986.16787     3381.025    4556.4886     1518.102    2849.0908    305.78265     5216 
347000000   -961.49523    3432.8996    4562.6994     1536.192    2858.2028    306.19946     5212 
348000000   -1008.4042    3262.5111    4665.5531    1517.7157    2753.1996     313.1019     5219 
349000000   -1017.4654    3313.3736    4591.0076     1536.054     2794.785     308.0992     5220 
350000000    -988.5843    3360.1911    4598.6514    1557.4348    2791.3406    308.61217     5216 
351000000    -1042.018     3320.017    4581.0341     1551.821     2810.214    307.42989     5214 
352000000   -1044.1327    3320.0608    4612.6633    1539.9367    2824.2568     309.5525     5217 
353000000   -1009.4508    3416.6814    4604.2864    1530.9459    2895.1862    308.99033     5218 
354000000    -1041.872    3323.3272    4641.5275    1495.7666    2869.4326    311.48956     5210 
355000000   -998.24124    3337.8337    4634.8108    1517.7411    2818.3339    311.03881     5213 
356000000   -1027.4223    3394.2716    4611.7139    1549.8624    2871.8315    309.48879     5213 
357000000   -1015.0763     3330.483    4611.2461    1527.7605    2817.7988    309.45739     5210 
358000000   -1006.0891    3347.1095    4658.2506    1528.5341    2824.6645    312.61183     5217 
359000000   -1033.7388    3365.1147    4658.5719    1501.4366    2897.4169    312.63339     5221 
360000000    -1004.601    3362.5393    4554.5992    1531.3329    2835.8073    305.65586     5217 
361000000    -997.1785    3349.5296     4725.788    1538.3181      2808.39    317.14421     5220 
362000000   -1014.7706    3413.4298    4602.9588    1582.5856    2845.6148    308.90124     5215 
363000000   -974.81783    3331.0827    4628.5218    1528.1942    2777.7064    310.61675     5210 
364000000   -983.63481    3400.9705    4694.3865     1531.087    2853.5183    315.03688     5225 
365000000   -1009.7322    3332.3988    4648.6121     1523.602    2818.5291      311.965     5224 
366000000   -940.02909    3399.6678    4627.0378    1490.9647    2848.7322    310.51717     5197 
367000000   -960.15141    3456.4972    4563.9229    1531.3076     2885.341    306.28157     5218 
368000000   -1010.1376    3438.9271    4628.7196    1559.3469    2889.7178    310.63003     5214 
369000000   -916.62312    3562.8444    4567.3059      1588.28    2891.1875     306.5086     5216 
370000000   -970.82657    3483.9174    4707.5657    1563.1153    2891.6286    315.92133     5211 
371000000   -941.13275    3450.8792    4670.4666    1573.4584    2818.5535    313.43163     5206 
372000000   -979.36703    3438.1318    4700.4156    1566.6457    2850.8532    315.44149     5216 
373000000   -972.92577    3314.4705     4587.655    1510.2105    2777.1858    307.87421     5216 
374000000   -954.81905    3412.0339     4685.527    1577.1894    2789.6636    314.44233     5218 
375000000     -1000.26    3423.2058    4618.5428    1575.5704    2847.8954    309.94707     5215 
376000000   -999.22039    3365.1755    4578.1643    1517.3862    2847.0097     307.2373     5223 
377000000   -1015.4566    3424.6941    4653.4762    1595.8627     2844.288    312.29142     5216 
378000000   -970.40025    3408.9104    4649.1795     1531.777    2847.5336    312.00307     5229 
379000000    -950.5602    3408.3661    4653.1713    1554.4246    2804.5017    312.27096     5218 
380000000   -1008.2044    3352.8565    4591.1863    1540.6293    2820.4316    308.11119     5203 
381000000   -996.08424    3366.6074    4672.9177    1526.1315    2836.5601    313.59613     5209 
382000000   -942.52619    3470.9911    4635.7987    1587.1496    2826.3677     311.1051     5200 
383000000   -958.96929    3358.8319    4616.7237    1504.6437    2813.1575    309.82499     5213 
384000000   -998.06352    3405.8113    4685.3995    1552.7525    2851.1223    314.43377     5217 
385000000   -965.50577    3336.7596    4589.8353    1508.8447    2793.4206    308.02053     5211 
386000000    -944.7876    3462.1248    4608.1259    1552.6057    2854.3067      309.248     5208 
387000000   -949.34754    3431.4888    4678.5773    1542.8882    2837.9482    313.97594     5217 
388000000   -991.34332     3353.979    4637.1206     1547.408    2797.9144    311.19381     5214 
389000000   -947.55775    3317.5258    4674.0701    1490.6386    2774.4449    313.67347     5215 
390000000   -932.73012    3446.0536    4684.9841    1495.7757     2883.008     314.4059     5211 
391000000   -908.28761    3429.3669    4593.4663    1555.8974    2781.7572     308.2642     5203 
392000000   -928.25754    3494.4349    4685.0441    1605.8537    2816.8388    314.40993     5212 
393000000    -956.3257    3397.7886     4660.886    1505.4689    2848.6454    312.78869     5221 
394000000   -963.42594    3408.8238    4664.3854    1544.6643    2827.5855    313.02353     5208 
395000000   -992.88451    3368.3441    4670.5815    1524.6338    2836.5948    313.43935     5205 
396000000   -991.52094    3328.0023    4611.5093    1508.3291    2811.1941    309.47505     5217 
397000000   -979.20073    3302.8443    4614.2882    1517.5732    2764.4718    309.66154     5221 
398000000    -977.8792    3430.4223    4648.2535    1623.7118    2784.5897    311.94093     5224 
399000000   -994.29381    3396.7164    4713.0772     1560.568    2830.4422    316.29121     5217 
400000000   -990.99892    3429.9984    4597.8858    1571.9587    2849.0386    308.56079     5230 
Loop time of 19921.2 on 10 procs for 100000000 steps with 5000 atoms

Performance: 10842.718 ns/day, 0.002 hours/ns, 5019.777 timesteps/s
99.6% CPU use with 10 MPI tasks x no OpenMP threads

MPI task timing breakdown:
Section |  min time  |  avg time  |  max time  |%varavg| %total
---------------------------------------------------------------
Pair    | 4849       | 5387.1     | 5921.3     | 523.7 | 27.04
Bond    | 1567.9     | 1596.7     | 1629       |  50.9 |  8.01
Neigh   | 2800.1     | 2824.7     | 2844.7     |  29.2 | 14.18
Comm    | 4780.7     | 5550.8     | 6188.3     | 643.1 | 27.86
Output  | 0.55972    | 0.55977    | 0.55982    |   0.0 |  0.00
Modify  | 3515       | 3561.9     | 3599.9     |  47.1 | 17.88
Other   |            | 999.4      |            |       |  5.02

Nlocal:    500 ave 526 max 466 min
Histogram: 1 0 0 1 1 2 2 2 0 1
Nghost:    533.5 ave 625 max 433 min
Histogram: 1 1 1 1 0 2 1 1 0 2
Neighs:    5082.1 ave 5930 max 4396 min
Histogram: 2 1 1 0 1 1 3 0 0 1

Total # of neighbors = 50821
Ave neighs/atom = 10.1642
Ave special neighs/atom = 7.238
Neighbor list builds = 5272186
Dangerous builds = 0
System init for write_restart ...
Total wall time: 5:32:01
