LAMMPS (5 Jun 2019)
Reading restart file ...
  restart file = 5 Jun 2019, LAMMPS = 5 Jun 2019
  restoring atom style full from restart
  orthogonal box = (-500 -500 -500) to (500 500 500)
  1 by 2 by 5 MPI processor grid
  restoring pair style lj/cut from restart
  restoring bond style harmonic from restart
  restoring angle style cosine from restart
  5000 atoms
  5225 bonds
  4600 angles
Finding 1-2 1-3 1-4 neighbors ...
  special bond factors lj:   1          1          1         
  special bond factors coul: 0          0          0         
  3 = max # of 1-2 neighbors
  4 = max # of 1-3 neighbors
  8 = max # of 1-4 neighbors
  16 = max # of special neighbors
  special bonds CPU = 0.00961215 secs
  read_restart CPU = 0.141698 secs
1000 atoms in group rxnSites
Neighbor list info ...
  update every 1 steps, delay 1 steps, check yes
  max neighbors/atom: 2000, page size: 100000
  master list distance cutoff = 26.9
  ghost atom cutoff = 26.9
  binsize = 13.45, bins = 75 75 75
  2 neighbor lists, perpetual/occasional/extra = 1 1 0
  (1) pair lj/cut, perpetual
      attributes: half, newton on
      pair build: half/bin/newton
      stencil: half/bin/3d/newton
      bin: standard
  (2) fix bond/create/random, occasional, copy from (1)
      attributes: half, newton on
      pair build: copy
      stencil: none
      bin: none
Setting up Verlet run ...
  Unit style    : real
  Current step  : 300000000
  Time step     : 25
WARNING: Inconsistent image flags (../domain.cpp:784)
Per MPI rank memory allocation (min/avg/max) = 10.48 | 10.74 | 11.41 Mbytes
Step E_pair PotEng KinEng E_bond E_angle Temp Bonds 
300000000   -946.67827    3417.4022    4689.9337    1540.9744     2823.106    314.73806     5225 
301000000   -956.33926    3450.8512    4723.5009     1527.125    2880.0655    316.99073     5212 
302000000   -890.37004    3428.8554    4557.9772    1507.6997    2811.5258    305.88256     5218 
303000000   -942.65467    3346.1512    4631.5033    1531.9539    2756.8519    310.81684     5220 
304000000   -928.72917    3387.8872     4675.532    1526.1261    2790.4902    313.77157     5213 
305000000   -948.68625    3337.5842    4702.8672    1554.2121    2732.0583    315.60602     5209 
306000000    -932.7446     3480.691    4535.8606    1522.1759    2891.2597    304.39833     5209 
307000000   -984.58357    3418.9367    4653.5212     1574.504    2829.0162    312.29444     5218 
308000000   -958.70661    3482.1451    4677.9671    1585.5781    2855.2736    313.93499     5219 
309000000   -920.08746    3422.6384    4575.8127    1534.1584    2808.5674    307.07948     5211 
310000000   -940.90496    3416.3047    4579.7041    1540.1392    2817.0705    307.34063     5214 
311000000   -926.13491    3397.0657    4636.9861     1534.947    2788.2536    311.18479     5210 
312000000   -950.52359    3457.4067    4514.9964    1543.6215    2864.3088    302.99814     5215 
313000000   -986.90349    3334.4103    4667.4259    1525.2621    2796.0517    313.22758     5224 
314000000   -979.51235    3437.6586    4596.3568    1534.5866    2882.5843    308.45818     5224 
315000000   -954.05951    3360.7512    4710.4313    1512.3771    2802.4336    316.11364     5220 
316000000   -935.21763    3434.5598    4560.6478    1540.6965    2829.0809    306.06178     5212 
317000000   -972.56824    3399.8227    4589.4878    1515.2268    2857.1642    307.99721     5217 
318000000   -973.48088    3435.2288    4629.6795    1517.3223    2891.3874    310.69444     5217 
319000000   -976.90592    3404.9363    4658.5994    1533.2963     2848.546    312.63524     5211 
320000000   -1007.1633    3376.8247    4613.9508    1504.2134    2879.7746    309.63891     5222 
321000000   -987.97508    3386.0361    4607.3723    1556.0074    2818.0038    309.19742     5221 
322000000   -990.21143    3468.8243    4647.8887      1545.41    2913.6257    311.91645     5215 
323000000   -986.92956    3383.3263    4622.7017    1553.1229     2817.133    310.22617     5221 
324000000   -997.44941    3295.5716    4598.3712    1510.5856    2782.4354    308.59337     5215 
325000000   -949.43172     3459.234    4649.9412    1545.9693    2862.6964     312.0542     5211 
326000000   -956.49693    3498.6231    4591.0386    1548.3393    2906.7807    308.10128     5215 
327000000   -953.00294    3416.5528    4592.5841    1490.9921    2878.5636      308.205     5208 
328000000   -1015.8995    3415.2901    4603.9835    1527.6052    2903.5845    308.97001     5217 
329000000   -1008.8778    3398.2901    4573.9829    1513.7129    2893.4551    306.95668     5220 
330000000   -985.49858     3368.875    4631.2885    1512.6812    2841.6924    310.80242     5220 
331000000   -998.70126    3393.1043    4546.7101    1531.9671    2859.8385    305.12643     5223 
332000000    -958.4406    3380.6649    4673.0621    1536.3626    2802.7429    313.60582     5207 
333000000   -980.77311    3469.3237    4525.2617    1582.9363    2867.1606    303.68704     5210 
334000000   -961.39555    3386.7898    4662.6553    1524.4124    2823.7729    312.90742     5207 
335000000   -994.82408    3421.7963    4660.0948    1508.7364     2907.884    312.73559     5220 
336000000   -992.33957    3477.5376     4637.837    1571.2714    2898.6058    311.24189     5215 
337000000   -972.22966     3502.465    4689.6267    1567.5495    2907.1452    314.71746     5226 
338000000   -1020.1071    3319.1629    4683.6348    1483.4486    2855.8215    314.31535     5214 
339000000   -1002.4349    3321.3245    4685.2485    1520.7427    2803.0167    314.42364     5213 
340000000   -982.85008    3325.9054    4535.4991    1481.8639    2826.8916    304.37407     5212 
341000000   -990.62933    3421.5919    4630.1548    1533.5135    2878.7077    310.72634     5214 
342000000   -982.73754    3428.3342    4633.1048    1541.2266    2869.8452    310.92431     5216 
343000000   -975.58707    3393.5333    4754.1957     1537.679    2831.4413    319.05064     5217 
344000000   -955.66561    3449.1623     4651.376    1541.5899     2863.238    312.15048     5209 
345000000   -1002.2768    3428.6446    4584.7939    1605.7767    2825.1447    307.68221     5211 
346000000   -999.47309    3322.1678    4699.1963    1518.8968    2802.7441    315.35967     5215 
347000000   -1034.9574    3325.0938    4626.7602    1515.2954    2844.7557    310.49853     5212 
348000000   -1019.1878    3368.3505    4652.9475    1557.8369    2829.7014    312.25594     5225 
349000000   -1000.0783    3397.2898    4597.3025    1546.5036    2850.8645    308.52165     5219 
350000000   -999.98273    3281.6224    4625.9907    1577.3166    2704.2885    310.44689     5218 
351000000   -986.43475    3447.7813    4617.7808    1578.6562    2855.5598    309.89593     5221 
352000000   -1004.1126    3327.4265    4628.1177    1528.4819    2803.0572    310.58964     5223 
353000000   -999.36838    3407.2027     4511.337    1576.2372    2830.3339    302.75257     5219 
354000000   -991.03569    3329.5772    4598.9673    1520.1362    2800.4767    308.63337     5198 
355000000   -1014.8377    3353.1916     4562.793    1556.2726    2811.7567    306.20574     5209 
356000000   -984.44009    3452.9206    4578.4732    1537.6095    2899.7512    307.25803     5225 
357000000    -1020.638    3419.9771    4617.7828    1574.8163    2865.7988    309.89606     5213 
358000000   -1040.3495    3367.0522    4619.0054    1512.0058    2895.3959    309.97812     5214 
359000000   -1021.4615    3355.7486    4564.4149    1528.7701      2848.44    306.31459     5212 
360000000   -1018.5536     3354.466    4684.3956    1498.8922    2874.1274     314.3664     5224 
361000000   -1054.1529    3298.6786    4636.1247    1525.7933    2827.0382    311.12698     5210 
362000000    -963.1358    3469.1276    4607.4143    1557.1372    2875.1262    309.20025     5215 
363000000   -1011.3579    3378.8415    4627.9267    1517.7144    2872.4851    310.57681     5223 
364000000   -1049.6945    3332.4844    4468.9357    1562.6249    2819.5541    299.90705     5219 
365000000   -1043.8416    3327.4417    4601.8356    1516.2921    2854.9912    308.82586     5223 
366000000   -1011.4609    3298.6724    4544.8335    1519.4293    2790.7039    305.00049     5222 
367000000   -1012.4718    3333.4891    4694.0702    1553.4719     2792.489    315.01566     5219 
368000000   -990.66296    3416.0828    4683.2533    1535.0142    2871.7316    314.28974     5219 
369000000   -1038.2261    3454.4056    4566.0767    1544.8461    2947.7857    306.42611     5222 
370000000   -1017.3649    3310.7336    4608.0007    1530.1161    2797.9824     309.2396     5217 
371000000   -1042.2384    3390.4826    4595.3905    1558.5615    2874.1595    308.39334     5218 
372000000   -999.13268    3389.0983    4562.5411    1508.7192    2879.5118    306.18884     5216 
373000000   -984.30486    3413.7436    4589.6458    1546.9998    2851.0486    308.00782     5209 
374000000   -986.83544    3358.4668    4593.2083    1537.4089    2807.8933    308.24689     5212 
375000000   -1014.6144    3338.0053    4629.7929    1571.0225    2781.5972    310.70206     5204 
376000000   -1008.9492    3334.7996    4593.3897     1512.511    2831.2378    308.25906     5210 
377000000   -986.05665    3408.4756    4567.5848    1545.9229    2848.6094    306.52732     5214 
378000000   -991.59887    3342.2339    4669.2659    1478.9691    2854.8637    313.35106     5211 
379000000   -1000.4849    3312.9784    4604.9277    1518.0359    2795.4274    309.03337     5223 
380000000   -954.32036    3447.8285    4610.7176    1602.4999     2799.649    309.42192     5218 
381000000   -1009.3372    3365.4919    4621.4539    1535.7093    2839.1198    310.14243     5213 
382000000   -946.72048    3471.3967    4648.7172    1584.1778    2833.9394    311.97205     5214 
383000000   -947.64531    3395.6457    4619.6415    1569.3946    2773.8964     310.0208     5215 
384000000   -992.70819    3332.1626    4636.1674    1495.3974    2829.4734    311.12985     5211 
385000000   -959.42526    3467.8717    4665.6592    1561.4434    2865.8536    313.10902     5210 
386000000   -973.91002    3359.7054    4664.5442    1478.8251    2854.7903    313.03419     5217 
387000000   -953.23162    3408.7046    4652.2304    1565.8855    2796.0507    312.20782     5214 
388000000   -969.40115    3478.4287    4595.8464    1574.7949     2873.035    308.42393     5206 
389000000   -1015.6303    3404.3307     4600.458    1559.6984    2860.2625    308.73341     5217 
390000000   -1003.9736    3325.5131    4602.9653    1488.2114    2841.2753    308.90167     5211 
391000000   -968.14954     3329.937    4640.6385     1549.465    2748.6215    311.42989     5219 
392000000   -953.18996    3332.4846    4657.9643    1470.2646    2815.4099    312.59262     5205 
393000000   -985.49022    3366.0077     4619.681     1570.584     2780.914    310.02345     5220 
394000000   -996.93199    3336.9773    4471.5552    1543.6784    2790.2308    300.08283     5210 
395000000   -977.60788    3361.3708    4616.2221    1525.4674    2813.5113    309.79133     5209 
396000000   -990.34105    3420.0352    4596.3092    1564.1091    2846.2672    308.45499     5219 
397000000   -991.02498    3386.3752    4580.4989    1579.6966    2797.7036    307.39397     5217 
398000000   -998.90839    3369.6672    4683.2866    1511.6994    2856.8762    314.29198     5215 
399000000   -989.34938    3439.0957    4614.0482    1551.3473    2877.0978    309.64544     5217 
400000000   -982.40709    3288.0857    4631.5867    1493.7153    2776.7775    310.82244     5230 
Loop time of 19713.1 on 10 procs for 100000000 steps with 5000 atoms

Performance: 10957.172 ns/day, 0.002 hours/ns, 5072.765 timesteps/s
99.6% CPU use with 10 MPI tasks x no OpenMP threads

MPI task timing breakdown:
Section |  min time  |  avg time  |  max time  |%varavg| %total
---------------------------------------------------------------
Pair    | 4758.2     | 5387.7     | 6344.2     | 714.6 | 27.33
Bond    | 1559.2     | 1578.8     | 1599.4     |  30.0 |  8.01
Neigh   | 2738.9     | 2775.4     | 2811.2     |  46.1 | 14.08
Comm    | 4495.6     | 5545.7     | 6416.9     | 841.0 | 28.13
Output  | 0.51201    | 0.51214    | 0.51224    |   0.0 |  0.00
Modify  | 3494.7     | 3517       | 3534.2     |  18.4 | 17.84
Other   |            | 908.1      |            |       |  4.61

Nlocal:    500 ave 529 max 483 min
Histogram: 1 2 1 3 0 2 0 0 0 1
Nghost:    582.1 ave 705 max 451 min
Histogram: 2 1 0 1 1 0 1 1 1 2
Neighs:    5186.6 ave 5859 max 4249 min
Histogram: 2 1 1 0 0 0 0 1 2 3

Total # of neighbors = 51866
Ave neighs/atom = 10.3732
Ave special neighs/atom = 7.2284
Neighbor list builds = 5271498
Dangerous builds = 0
System init for write_restart ...
Total wall time: 5:28:33
