LAMMPS (5 Jun 2019)
Reading restart file ...
  restart file = 5 Jun 2019, LAMMPS = 5 Jun 2019
  restoring atom style full from restart
  orthogonal box = (-500 -500 -500) to (500 500 500)
  1 by 2 by 5 MPI processor grid
  restoring pair style lj/cut from restart
  restoring bond style harmonic from restart
  restoring angle style cosine from restart
  5000 atoms
  5225 bonds
  4600 angles
Finding 1-2 1-3 1-4 neighbors ...
  special bond factors lj:   1          1          1         
  special bond factors coul: 0          0          0         
  3 = max # of 1-2 neighbors
  4 = max # of 1-3 neighbors
  8 = max # of 1-4 neighbors
  16 = max # of special neighbors
  special bonds CPU = 0.00091733 secs
  read_restart CPU = 0.109919 secs
1000 atoms in group rxnSites
Neighbor list info ...
  update every 1 steps, delay 1 steps, check yes
  max neighbors/atom: 2000, page size: 100000
  master list distance cutoff = 26.9
  ghost atom cutoff = 26.9
  binsize = 13.45, bins = 75 75 75
  2 neighbor lists, perpetual/occasional/extra = 1 1 0
  (1) pair lj/cut, perpetual
      attributes: half, newton on
      pair build: half/bin/newton
      stencil: half/bin/3d/newton
      bin: standard
  (2) fix bond/create/random, occasional, copy from (1)
      attributes: half, newton on
      pair build: copy
      stencil: none
      bin: none
Setting up Verlet run ...
  Unit style    : real
  Current step  : 300000000
  Time step     : 25
WARNING: Inconsistent image flags (../domain.cpp:784)
Per MPI rank memory allocation (min/avg/max) = 10.48 | 10.74 | 11.41 Mbytes
Step E_pair PotEng KinEng E_bond E_angle Temp Bonds 
300000000   -946.67827    3417.4022    4689.9337    1540.9744     2823.106    314.73806     5225 
301000000    -941.3828    3444.6762    4636.3268    1539.2163    2846.8426    311.14054     5222 
302000000   -956.45617    3348.4171    4674.5497    1498.0596    2806.8137    313.70565     5217 
303000000   -963.56042    3402.1783     4656.667    1567.9215    2797.8172    312.50556     5220 
304000000   -963.18907    3433.1296    4652.7526    1520.5064    2875.8123    312.24286     5218 
305000000   -942.57178     3429.742    4529.4553    1555.4423    2816.8715    303.96847     5218 
306000000    -912.3905    3431.7797    4631.9193    1535.2222     2808.948    310.84476     5212 
307000000   -984.42836    3442.6857    4571.8606      1571.95    2855.1641    306.81426     5217 
308000000   -955.20755    3502.1981    4586.1284    1550.1254    2907.2803    307.77176     5212 
309000000   -903.34705    3508.6881    4724.9457    1538.6365    2873.3986    317.08769     5219 
310000000   -919.62787     3528.231    4734.8315     1544.897    2902.9619    317.75112     5213 
311000000   -911.16566    3368.3317    4652.7778    1518.9879    2760.5095    312.24456     5221 
312000000   -942.86567    3395.1445    4599.0439    1539.8866    2798.1236    308.63851     5198 
313000000   -941.50458    3375.5747    4634.2718    1560.7143     2756.365    311.00263     5219 
314000000   -943.09267    3496.2718     4717.879    1544.5344    2894.8301    316.61345     5212 
315000000   -959.03973    3353.4997     4632.341    1526.2725    2786.2669    310.87306     5206 
316000000   -967.47018    3338.7292    4616.6087    1501.3287    2804.8706    309.81727     5221 
317000000   -973.45081    3474.4816    4581.9491    1586.3398    2861.5927    307.49129     5223 
318000000   -945.73862    3398.0094    4535.0754    1550.0687    2793.6793    304.34563     5225 
319000000   -968.87702    3428.7284    4504.9521    1534.0104     2863.595    302.32408     5212 
320000000   -983.65658     3416.515    4697.9746    1596.8045    2803.3671    315.27768     5213 
321000000   -938.39489    3472.0428    4632.2789    1540.4792    2869.9585    310.86889     5213 
322000000   -966.29826    3428.4498    4541.5026    1559.6339    2835.1142    304.77696     5215 
323000000   -977.30612    3342.6464     4605.786    1498.1676     2821.785    309.09097     5205 
324000000   -949.39322    3473.1822    4620.0992     1565.535    2857.0404    310.05151     5212 
325000000   -931.88678    3410.8845    4648.0291    1583.3949    2759.3764    311.92587     5220 
326000000   -953.24306    3292.0391     4559.139    1513.1381    2732.1441    305.96052     5207 
327000000     -972.526    3388.1181    4654.1188    1536.7189    2823.9252    312.33455     5210 
328000000   -952.50232    3427.1021    4611.3416    1586.6082    2792.9962     309.4638     5216 
329000000   -973.21288    3434.9045    4582.6869     1564.041    2844.0764    307.54081     5209 
330000000    -953.9131    3312.5311    4652.8925    1485.5434    2780.9008    312.25225     5221 
331000000   -897.27508     3535.821     4587.758    1557.7306    2875.3654    307.88112     5209 
332000000   -925.01543    3413.8926    4610.5547     1552.757     2786.151    309.41099     5205 
333000000    -942.0866    3417.4903    4572.2545    1558.1398    2801.4371    306.84069     5205 
334000000   -944.00376    3396.6362     4643.432     1558.028     2782.612    311.61737     5207 
335000000   -938.88247    3389.2001    4572.0493    1520.5392    2807.5434    306.82693     5208 
336000000    -982.7676    3373.3341     4623.854    1500.0249    2856.0768     310.3035     5210 
337000000   -971.99419    3384.2112    4755.0198    1539.9901    2816.2153    319.10594     5210 
338000000   -1006.3888    3406.5197    4673.8797    1503.1756    2909.7329    313.66069     5215 
339000000   -941.10412    3383.7785     4635.731    1522.4883    2802.3943    311.10056     5207 
340000000   -1005.8486    3458.9832     4612.716    1556.1652    2908.6665    309.55604     5202 
341000000   -979.74483    3370.9427     4591.577    1541.5977    2809.0898    308.13741     5213 
342000000   -958.73964    3422.1937    4664.2443    1526.8374     2854.096    313.01407     5214 
343000000   -984.10828    3397.3138    4673.5111    1507.3623    2874.0597    313.63595     5207 
344000000   -1016.2216    3312.3071    4623.3316    1466.4892    2862.0395    310.26844     5207 
345000000    -992.2118    3392.5729    4696.5987    1590.9836    2793.8011    315.18535     5212 
346000000   -985.56193    3389.5658    4639.6115    1513.9732    2861.1545    311.36097     5213 
347000000   -1005.7162    3369.6316    4702.9697    1532.3498     2842.998     315.6129     5214 
348000000   -966.79746    3432.1518    4638.7814    1516.4623     2882.487    311.30527     5221 
349000000   -962.13687    3356.2136    4633.1176    1492.2994    2826.0511    310.92517     5213 
350000000   -1044.7066    3304.8854    4568.0986    1491.2079    2858.3841     306.5618     5222 
351000000   -1006.3235    3283.2346     4617.561    1503.1917    2786.3664    309.88118     5203 
352000000   -1016.3709    3302.4811    4667.9702    1499.0372    2819.8148    313.26411     5205 
353000000   -1014.8121    3330.6817    4665.6991    1526.7805    2818.7133     313.1117     5196 
354000000   -960.46639    3496.1061      4704.67    1546.7159    2909.8566      315.727     5203 
355000000   -1004.7474     3352.257    4639.1889    1554.5188    2802.4856    311.33261     5220 
356000000   -990.59017    3391.6557    4608.4037     1535.491    2846.7548    309.26664     5206 
357000000   -1018.4285    3405.1397    4681.5878    1565.0771    2858.4911    314.17797     5205 
358000000     -982.157     3345.792    4591.4242    1525.6534    2802.2956    308.12716     5206 
359000000   -1007.2199    3378.9829    4656.6509    1563.6512    2822.5516    312.50447     5211 
360000000   -977.44677    3365.8869    4528.6513    1553.1991    2790.1345    303.91452     5209 
361000000   -984.25654    3433.2614    4618.3296    1559.3113    2858.2067    309.93276     5212 
362000000   -1007.0029    3382.2899    4573.8463    1553.0324    2836.2603    306.94752     5214 
363000000   -963.52962     3377.776    4594.3655    1555.4072    2785.8985    308.32454     5211 
364000000   -953.55709    3396.3523    4558.2087    1485.0733    2864.8361    305.89809     5210 
365000000   -982.94504     3336.841    4473.6345    1493.6031     2826.183    300.22238     5209 
366000000   -964.43584    3358.7739    4616.7598    1496.7422    2826.4675    309.82741     5210 
367000000   -978.29415    3318.2898    4578.4809     1495.149     2801.435    307.25855     5213 
368000000   -1002.6944    3381.2155    4624.8339    1589.4965    2794.4135    310.36926     5212 
369000000    -988.3957    3390.5628    4538.9869     1479.196    2899.7626    304.60813     5209 
370000000   -998.88493    3319.3808    4720.9192    1553.4736     2764.792    316.81748     5211 
371000000   -1008.2897    3358.3461    4649.9104    1540.3374    2826.2984    312.05213     5221 
372000000   -974.66375     3407.155    4562.4537    1547.1881    2834.6307    306.18297     5208 
373000000   -947.46756    3399.0111     4629.247    1541.0242    2805.4544    310.66542     5212 
374000000   -970.75465    3449.2629    4543.9481    1566.3267    2853.6909    304.94107     5205 
375000000   -979.42609    3319.0845    4587.5561    1535.7165    2762.7941    307.86758     5194 
376000000   -948.49675    3346.2086    4618.4771    1512.4028    2782.3025    309.94266     5203 
377000000   -964.55137    3349.8422    4659.2224    1553.3015     2761.092    312.67705     5201 
378000000   -931.25179    3465.4626    4687.0157    1546.6427    2850.0717    314.54224     5206 
379000000   -925.41419    3528.3249    4657.4615    1602.1021     2851.637    312.55887     5206 
380000000   -995.83115     3384.024    4600.6229    1542.3675    2837.4877    308.74448     5205 
381000000   -996.01624     3410.238     4610.965    1532.4185    2873.8357    309.43853     5206 
382000000   -989.68872    3417.9692     4620.848     1531.314    2876.3439    310.10177     5209 
383000000   -998.08314    3379.2372    4532.1722    1511.1351    2866.1852     304.1508     5206 
384000000   -995.66611     3406.684    4667.8991     1556.476    2845.8741    313.25933     5210 
385000000   -997.90923    3419.9028    4574.9154    1534.4415    2883.3705    307.01927     5205 
386000000   -969.72343    3357.8764    4565.8762    1507.3872    2820.2126    306.41265     5212 
387000000   -975.34818    3445.2213    4658.4805    1567.4856    2853.0839    312.62726     5205 
388000000   -977.58268    3438.0584     4596.143    1544.1036    2871.5374    308.44384     5219 
389000000   -939.88766    3402.3723     4619.636    1531.9145    2810.3455    310.02043     5205 
390000000    -961.3158    3429.2509    4530.4342    1576.8634    2813.7033    304.03417     5205 
391000000   -939.28174    3449.5708    4596.2972    1560.0473    2828.8053    308.45419     5207 
392000000   -958.89191    3400.7577     4620.274    1537.2292    2822.4205    310.06325     5210 
393000000   -943.89905    3373.5053    4683.6192    1480.6072    2836.7971     314.3143     5207 
394000000   -1000.8683    3489.7379    4634.4893    1595.7356    2894.8705    311.01723     5224 
395000000   -972.32914    3292.1321    4604.7562    1476.8241    2787.6371    309.02186     5206 
396000000   -990.92497    3386.9485    4671.9618    1518.8774    2858.9961    313.53198     5211 
397000000   -937.59988    3430.3776    4627.4377    1544.2076    2823.7699      310.544     5208 
398000000   -990.87047    3378.1495    4594.3246    1578.1208    2790.8991    308.32181     5208 
399000000   -955.98924    3376.8711    4608.3334    1527.9341    2804.9262    309.26193     5208 
400000000   -947.56346    3383.3358    4618.0698    1486.9267    2843.9725    309.91533     5208 
Loop time of 19461.1 on 10 procs for 100000000 steps with 5000 atoms

Performance: 11099.036 ns/day, 0.002 hours/ns, 5138.443 timesteps/s
99.7% CPU use with 10 MPI tasks x no OpenMP threads

MPI task timing breakdown:
Section |  min time  |  avg time  |  max time  |%varavg| %total
---------------------------------------------------------------
Pair    | 4846.6     | 5328       | 6200.2     | 600.8 | 27.38
Bond    | 1567.2     | 1589.3     | 1676.6     |  77.3 |  8.17
Neigh   | 2776.5     | 2792.2     | 2816.4     |  21.1 | 14.35
Comm    | 4650.3     | 5518.1     | 6187.7     | 633.6 | 28.35
Output  | 0.58187    | 0.58199    | 0.58211    |   0.0 |  0.00
Modify  | 3430.6     | 3459       | 3535.1     |  49.8 | 17.77
Other   |            | 773.9      |            |       |  3.98

Nlocal:    500 ave 522 max 485 min
Histogram: 1 2 2 0 2 0 1 1 0 1
Nghost:    544.5 ave 819 max 411 min
Histogram: 2 2 4 0 0 0 0 0 1 1
Neighs:    4971.6 ave 6059 max 3925 min
Histogram: 1 1 1 1 2 1 0 1 0 2

Total # of neighbors = 49716
Ave neighs/atom = 9.9432
Ave special neighs/atom = 7.14
Neighbor list builds = 5270144
Dangerous builds = 0
System init for write_restart ...
Total wall time: 5:24:21
