LAMMPS (5 Jun 2019)
Reading restart file ...
  restart file = 5 Jun 2019, LAMMPS = 5 Jun 2019
  restoring atom style full from restart
  orthogonal box = (-500 -500 -500) to (500 500 500)
  1 by 2 by 5 MPI processor grid
  restoring pair style lj/cut from restart
  restoring bond style harmonic from restart
  restoring angle style cosine from restart
  5000 atoms
  5225 bonds
  4600 angles
Finding 1-2 1-3 1-4 neighbors ...
  special bond factors lj:   1          1          1         
  special bond factors coul: 0          0          0         
  3 = max # of 1-2 neighbors
  4 = max # of 1-3 neighbors
  8 = max # of 1-4 neighbors
  16 = max # of special neighbors
  special bonds CPU = 0.00090237 secs
  read_restart CPU = 0.0106726 secs
1000 atoms in group rxnSites
Neighbor list info ...
  update every 1 steps, delay 1 steps, check yes
  max neighbors/atom: 2000, page size: 100000
  master list distance cutoff = 26.9
  ghost atom cutoff = 26.9
  binsize = 13.45, bins = 75 75 75
  2 neighbor lists, perpetual/occasional/extra = 1 1 0
  (1) pair lj/cut, perpetual
      attributes: half, newton on
      pair build: half/bin/newton
      stencil: half/bin/3d/newton
      bin: standard
  (2) fix bond/create/random, occasional, copy from (1)
      attributes: half, newton on
      pair build: copy
      stencil: none
      bin: none
Setting up Verlet run ...
  Unit style    : real
  Current step  : 300000000
  Time step     : 25
WARNING: Inconsistent image flags (../domain.cpp:784)
Per MPI rank memory allocation (min/avg/max) = 10.48 | 10.74 | 11.41 Mbytes
Step E_pair PotEng KinEng E_bond E_angle Temp Bonds 
300000000   -946.67827    3417.4022    4689.9337    1540.9744     2823.106    314.73806     5225 
301000000   -956.14922    3277.0685    4593.7066    1487.0863    2746.1314    308.28033     5217 
302000000   -964.38423    3337.3056    4598.9027    1506.9269    2794.7629    308.62904     5224 
303000000   -940.85054    3480.7807    4682.0808    1539.0059    2882.6254    314.21106     5215 
304000000   -979.34458    3466.4289    4675.8213    1514.2998    2931.4737    313.79098     5215 
305000000   -997.57132    3319.1791    4631.6585    1543.0081    2773.7423    310.82725     5210 
306000000   -959.38381    3436.7738    4603.9914    1611.0169    2785.1408    308.97054     5218 
307000000   -954.36221     3478.413    4549.6027    1548.4459    2884.3293    305.32055     5215 
308000000   -959.92289    3394.3663    4653.4677    1578.2894    2775.9998    312.29085     5214 
309000000   -956.07298    3410.6728    4585.7579    1496.2717    2870.4741     307.7469     5205 
310000000   -942.44563    3390.9156    4658.8612    1558.1739    2775.1873    312.65281     5218 
311000000   -935.12234      3499.57    4566.8367    1583.3196    2851.3728    306.47711     5212 
312000000   -948.50623    3456.0811    4689.5253    1555.9663     2848.621    314.71065     5211 
313000000   -977.03162    3490.0206    4704.2467    1543.6415    2923.4108     315.6986     5218 
314000000   -971.79762    3319.1595    4664.2299    1492.9076    2798.0495     313.0131     5213 
315000000   -972.39379    3498.1909    4649.0287    1596.5994    2873.9852    311.99296     5212 
316000000   -998.17671    3379.6189    4592.5045    1531.4653    2846.3303    308.19966     5219 
317000000   -989.35048    3500.0568    4693.0624    1624.8991    2864.5082    314.94802     5217 
318000000   -979.74602    3309.5012    4614.9454    1501.0641    2788.1831    309.70565     5212 
319000000   -1026.0068    3379.2582     4583.805    1559.2135    2846.0515    307.61584     5226 
320000000   -993.41018    3423.3506    4608.8324    1544.8328     2871.928    309.29541     5218 
321000000   -1026.5536    3384.8622    4600.8949    1513.3555    2898.0603    308.76273     5219 
322000000   -967.13096    3423.9986    4654.7398    1519.1215    2872.0081    312.37622     5207 
323000000   -991.07849    3371.0654    4695.0121    1480.6217    2881.5222    315.07887     5224 
324000000    -1017.043    3386.0118    4637.0394    1556.1852    2846.8696    311.18836     5224 
325000000   -996.10541      3443.05    4691.3722    1590.3911    2848.7644     314.8346     5224 
326000000   -993.57821    3337.2156    4688.8704     1549.543    2781.2509     314.6667     5218 
327000000   -971.27898    3363.1174    4561.8701    1523.0005    2811.3959     306.1438     5222 
328000000   -981.34905     3282.644    4637.3839    1483.6569    2780.3362    311.21148     5222 
329000000   -963.37932    3413.8675    4748.0134    1499.9341    2877.3128    318.63574     5213 
330000000   -968.89311    3424.6881    4624.4043    1556.2318    2837.3494    310.34043     5207 
331000000   -994.65635    3285.2749     4704.435    1512.0651    2767.8661    315.71123     5214 
332000000   -970.95688    3394.0201    4565.9122    1510.3474    2854.6296    306.41507     5209 
333000000   -955.16485     3409.587    4584.3764    1540.7199     2824.032    307.65418     5206 
334000000   -950.98116    3445.1379    4562.8212    1586.5961     2809.523    306.20763     5207 
335000000   -941.26062    3405.5177    4514.7795    1531.0751    2815.7033    302.98359     5214 
336000000   -948.21601     3355.195    4637.6516    1483.8079    2819.6031    311.22945     5222 
337000000   -973.36322    3303.5103    4638.2737    1505.0042    2771.8693    311.27119     5223 
338000000   -944.57326    3424.2861    4674.6027    1541.6588    2827.2005    313.70921     5219 
339000000   -968.77648    3328.6977    4584.0506    1513.9647    2783.5095    307.63232     5217 
340000000   -962.78802    3418.4718    4606.0395    1540.0508     2841.209    309.10798     5204 
341000000    -963.5012    3365.7136    4649.4232    1536.8518     2792.363    312.01943     5211 
342000000    -975.7354    3343.0378    4542.4277    1517.3381    2801.4351    304.83904     5222 
343000000   -970.77872    3404.5241    4662.6597    1565.0818     2810.221    312.90772     5218 
344000000   -972.84223    3368.5203    4527.0335    1468.4966    2872.8659    303.80595     5206 
345000000   -932.75339    3332.8233    4567.9331    1497.2577     2768.319    306.55069     5217 
346000000   -919.83626    3384.5675    4662.6299    1536.1977    2768.2061    312.90572     5201 
347000000   -967.68784    3383.8566    4574.1376    1550.0939    2801.4506    306.96707     5211 
348000000   -984.22858    3324.9292     4587.488    1533.2103    2775.9475      307.863     5211 
349000000   -975.50825    3401.7975    4670.7546    1557.3281    2819.9777    313.45096     5212 
350000000    -940.9038     3348.992    4614.2607    1504.7579    2785.1379     309.6597     5205 
351000000   -1011.8465    3347.3519     4548.883    1522.9509    2836.2475    305.27225     5205 
352000000   -997.47126     3427.629    4585.8457    1561.5745    2863.5257    307.75279     5212 
353000000   -1005.7829    3306.7824    4681.9429    1516.5379    2796.0274     314.2018     5220 
354000000   -994.72251    3377.2382    4651.8773    1544.6239    2827.3368    312.18413     5215 
355000000   -932.38824     3472.744    4647.5101    1577.8086    2827.3236    311.89104     5213 
356000000   -951.47597    3433.1467    4572.9538    1551.2089    2833.4138    306.88762     5215 
357000000   -1007.3049    3374.9008    4661.1173    1552.5601    2829.6456    312.80421     5214 
358000000    -1008.397    3399.6512    4593.9547    1557.2702    2850.7779    308.29698     5214 
359000000   -1006.7643    3403.7463    4665.2197    1579.0474    2831.4632    313.07952     5219 
360000000   -971.86097    3412.1584    4641.6748    1567.6263    2816.3931    311.49944     5209 
361000000   -1015.7858    3369.3522    4674.2733    1579.1273    2806.0107    313.68711     5219 
362000000   -999.82423    3434.6534    4704.8213    1557.8936    2876.5841    315.73716     5222 
363000000   -987.40208    3419.3875     4607.004    1597.9325    2808.8571    309.17271     5213 
364000000   -1006.6342    3319.9356    4602.2489     1520.502    2806.0678     308.8536     5209 
365000000   -999.82228    3253.1242    4641.8017    1471.3764    2781.5701    311.50796     5210 
366000000    -1020.297    3322.7038    4494.5937    1516.7409    2826.2599    301.62894     5205 
367000000   -1043.9204    3329.8592    4610.2368    1520.4837    2853.2959    309.38966     5216 
368000000   -1012.5556    3287.3744     4469.235    1528.0718    2771.8583    299.92713     5223 
369000000   -1022.6716    3345.9471    4623.1552    1539.8462    2828.7724     310.2566     5225 
370000000   -1049.2044    3312.3838    4594.2914     1566.408    2795.1803    308.31958     5234 
371000000   -999.94805    3351.6888    4639.1391    1539.0843    2812.5525    311.32927     5220 
372000000   -1004.1809    3366.5223    4610.6672    1571.0321     2799.671    309.41854     5214 
373000000   -1073.2765    3318.7024    4635.9633    1517.6398    2874.3391    311.11615     5211 
374000000   -1030.9188    3260.8369    4514.3524    1525.7118    2766.0439    302.95492     5221 
375000000    -997.1451    3410.9032    4721.8448    1575.1717    2832.8766    316.87959     5214 
376000000   -1018.0404    3372.5078    4629.1323    1565.9719    2824.5763    310.65772     5216 
377000000   -1045.8683     3398.908    4590.6546    1619.9073     2824.869    308.07551     5229 
378000000   -978.89782    3396.8681    4593.1349    1531.4621    2844.3038    308.24196     5223 
379000000   -1012.8247    3322.6117    4553.6507    1547.0299    2788.4064    305.59221     5228 
380000000    -987.9027    3388.1768    4596.8618    1558.9107    2817.1688    308.49207     5211 
381000000   -973.86653    3388.8166    4648.2557    1603.9042    2758.7789    311.94108     5218 
382000000   -980.18633    3369.7335    4588.5623     1542.959    2806.9607     307.9351     5210 
383000000   -981.78616    3318.3185    4575.5783    1489.4321    2810.6725    307.06375     5211 
384000000   -996.34211    3398.2413    4608.2326    1582.3024    2812.2811    309.25516     5215 
385000000    -1009.669    3355.3062    4780.0451    1578.3325    2786.6427    320.78537     5220 
386000000   -1030.9919    3446.9798    4626.9148    1535.0533    2942.9184    310.50891     5214 
387000000   -1010.2318     3322.827    4534.2796    1504.7891    2828.2697    304.29223     5213 
388000000   -978.10772    3394.9197    4543.0046     1533.842    2839.1854    304.87776     5214 
389000000   -1012.5481    3356.2134    4639.8443    1540.5446    2828.2168     311.3766     5216 
390000000   -1003.7574     3329.211    4584.1935    1471.1285    2861.8399    307.64191     5222 
391000000    -1009.757    3397.8021    4587.7741    1540.5961    2866.9629     307.8822     5215 
392000000   -1033.6938    3354.7714    4625.7974    1539.9544    2848.5107    310.43392     5226 
393000000   -1037.5535    3321.7441    4592.3701    1519.3305    2839.9671    308.19064     5222 
394000000   -1056.6774    3322.9031    4646.2142    1539.0588    2840.5217    311.80408     5214 
395000000   -1002.9959     3311.144    4633.9332     1503.713    2810.4269    310.97991     5223 
396000000   -1025.6572    3268.3922    4590.0604    1502.6912    2791.3582    308.03563     5210 
397000000   -1017.5263    3282.1816    4574.7127    1477.5055    2822.2025    307.00567     5213 
398000000   -1004.2248    3374.5018    4653.1534     1541.794    2836.9327    312.26976     5216 
399000000    -1017.432    3350.2198    4578.5247    1536.9054    2830.7465    307.26149     5221 
400000000   -1071.0613    3403.2228    4604.3999    1545.6793    2928.6048    308.99795     5223 
Loop time of 19407.5 on 10 procs for 100000000 steps with 5000 atoms

Performance: 11129.693 ns/day, 0.002 hours/ns, 5152.636 timesteps/s
99.6% CPU use with 10 MPI tasks x no OpenMP threads

MPI task timing breakdown:
Section |  min time  |  avg time  |  max time  |%varavg| %total
---------------------------------------------------------------
Pair    | 4863.6     | 5381.5     | 6075.3     | 568.3 | 27.73
Bond    | 1563.7     | 1574.9     | 1592       |  21.0 |  8.11
Neigh   | 2782.3     | 2800       | 2818.6     |  23.9 | 14.43
Comm    | 4673.9     | 5374.1     | 6030.4     | 641.8 | 27.69
Output  | 0.58235    | 0.58254    | 0.58264    |   0.0 |  0.00
Modify  | 3409.6     | 3475.9     | 3749.9     | 161.0 | 17.91
Other   |            | 800.5      |            |       |  4.12

Nlocal:    500 ave 510 max 487 min
Histogram: 2 0 0 1 0 0 4 1 1 1
Nghost:    580 ave 741 max 408 min
Histogram: 1 0 2 1 1 1 1 1 0 2
Neighs:    5557 ave 6839 max 4143 min
Histogram: 1 1 0 0 2 2 1 2 0 1

Total # of neighbors = 55570
Ave neighs/atom = 11.114
Ave special neighs/atom = 7.2156
Neighbor list builds = 5272767
Dangerous builds = 0
System init for write_restart ...
Total wall time: 5:23:27
