LAMMPS (5 Jun 2019)
Reading restart file ...
  restart file = 5 Jun 2019, LAMMPS = 5 Jun 2019
  restoring atom style full from restart
  orthogonal box = (-500 -500 -500) to (500 500 500)
  1 by 2 by 5 MPI processor grid
  restoring pair style lj/cut from restart
  restoring bond style harmonic from restart
  restoring angle style cosine from restart
  5000 atoms
  5225 bonds
  4600 angles
Finding 1-2 1-3 1-4 neighbors ...
  special bond factors lj:   1          1          1         
  special bond factors coul: 0          0          0         
  3 = max # of 1-2 neighbors
  4 = max # of 1-3 neighbors
  8 = max # of 1-4 neighbors
  16 = max # of special neighbors
  special bonds CPU = 0.00337848 secs
  read_restart CPU = 0.0723565 secs
1000 atoms in group rxnSites
Neighbor list info ...
  update every 1 steps, delay 1 steps, check yes
  max neighbors/atom: 2000, page size: 100000
  master list distance cutoff = 26.9
  ghost atom cutoff = 26.9
  binsize = 13.45, bins = 75 75 75
  2 neighbor lists, perpetual/occasional/extra = 1 1 0
  (1) pair lj/cut, perpetual
      attributes: half, newton on
      pair build: half/bin/newton
      stencil: half/bin/3d/newton
      bin: standard
  (2) fix bond/create/random, occasional, copy from (1)
      attributes: half, newton on
      pair build: copy
      stencil: none
      bin: none
Setting up Verlet run ...
  Unit style    : real
  Current step  : 300000000
  Time step     : 25
WARNING: Inconsistent image flags (../domain.cpp:784)
Per MPI rank memory allocation (min/avg/max) = 10.48 | 10.74 | 11.41 Mbytes
Step E_pair PotEng KinEng E_bond E_angle Temp Bonds 
300000000   -946.67827    3417.4022    4689.9337    1540.9744     2823.106    314.73806     5225 
301000000   -992.69215    3378.4104    4556.0298    1501.9667    2869.1359    305.75187     5216 
302000000   -987.47018    3407.4511    4651.1042    1521.5394    2873.3819    312.13224     5214 
303000000   -956.18187    3423.0509     4582.345    1533.6804    2845.5525    307.51786     5218 
304000000   -993.56934    3418.3324    4657.4224    1532.9825    2878.9192    312.55625     5215 
305000000   -974.45651    3459.0773    4706.3202    1547.3953    2886.1385    315.83775     5218 
306000000   -982.47868    3397.4367    4666.9337    1509.8527    2870.0627    313.19455     5223 
307000000   -996.23323    3393.9417    4578.3352    1568.9556    2821.2194    307.24877     5221 
308000000   -1013.1104    3322.3954    4597.7169    1490.7379     2844.768    308.54946     5207 
309000000   -1024.7816    3297.2299    4594.5515    1510.0782    2811.9333    308.33703     5211 
310000000    -1054.629    3281.9783    4610.1126    1521.4774      2815.13    309.38132     5213 
311000000   -1080.6345    3252.9014    4437.6166    1508.6381    2824.8978    297.80524     5213 
312000000   -1013.8386    3259.9354    4656.0945    1482.8077    2790.9663    312.46714     5216 
313000000   -1073.5984    3294.6385     4626.712    1552.9007    2815.3363     310.4953     5223 
314000000   -1006.9735    3331.1314    4673.7523    1519.2831    2818.8218    313.65214     5220 
315000000   -1026.9827    3340.9994    4605.2271    1553.4599    2814.5221    309.05346     5225 
316000000   -1050.2347    3285.7544    4577.4193    1504.0394    2831.9497     307.1873     5221 
317000000   -1002.3678    3299.8909    4531.8336    1508.7977     2793.461    304.12808     5219 
318000000    -982.0371    3323.4309    4660.8647    1523.5547    2781.9133    312.78726     5220 
319000000   -986.34235    3386.6768    4497.8122     1555.673    2817.3462    301.84492     5213 
320000000   -983.57118     3391.535    4550.9394    1533.3396    2841.7666    305.41026     5217 
321000000   -983.06497    3426.5627    4571.2739    1544.8606     2864.767    306.77489     5210 
322000000   -1010.1902    3245.1385    4574.5925    1526.2884    2729.0403    306.99759     5215 
323000000   -980.81306    3277.9811    4683.7081    1499.4339    2759.3602    314.32027     5207 
324000000   -945.96143    3314.1526    4573.9584    1488.9432    2771.1708    306.95504     5215 
325000000   -964.22629    3447.5554    4583.5388    1567.6244    2844.1573    307.59798     5216 
326000000   -997.62486    3420.6567    4656.0491    1560.1918    2858.0898    312.46409     5215 
327000000    -1001.868    3369.2666    4633.7016    1538.8765    2832.2581    310.96437     5225 
328000000   -986.94034    3320.5924    4544.6123    1513.6412    2793.8916    304.98565     5213 
329000000   -1034.1184    3360.5363    4521.3282    1539.1858    2855.4688    303.42307     5209 
330000000   -983.63282    3338.0863    4567.3955     1548.009    2773.7101    306.51461     5211 
331000000   -998.68361    3392.6991    4553.6551    1528.3139    2863.0688     305.5925     5206 
332000000   -1024.7995    3336.7839    4622.4038    1517.5043    2844.0791    310.20618     5222 
333000000   -1043.1031    3256.9464    4619.5514    1471.2097    2828.8398    310.01476     5224 
334000000   -951.08788    3435.3934    4622.8076    1560.5664    2825.9149    310.23328     5217 
335000000   -983.15327    3377.3463    4658.0898    1532.8633    2827.6362    312.60104     5228 
336000000   -946.09369    3360.7165    4571.5574    1550.1174    2756.6928    306.79391     5224 
337000000   -1006.5545    3339.1567    4663.9422    1552.9297    2792.7815    312.99379     5215 
338000000   -979.30486    3333.9162    4518.4195    1528.9216    2784.2995    303.22787     5215 
339000000   -966.19436    3366.4208    4612.8382    1505.7925    2826.8227    309.56424     5219 
340000000   -990.78038    3315.6898     4656.955    1514.4898    2791.9804    312.52488     5225 
341000000   -967.59242    3366.0769    4680.2421    1535.6646    2798.0047    314.08767     5219 
342000000   -942.15444    3453.3558    4675.7446     1556.602    2838.9083    313.78584     5210 
343000000   -959.91202    3375.8965    4605.0464    1517.8476    2817.9609    309.04134     5212 
344000000   -954.36021    3382.3184    4627.8899    1518.4136    2818.2651    310.57435     5212 
345000000   -1001.5241    3338.9753    4626.9326    1539.8889    2800.6105     310.5101     5224 
346000000   -969.21913    3388.8522    4636.8753    1539.7386    2818.3328    311.17735     5220 
347000000   -994.04447    3285.5369    4641.2272    1444.3146    2835.2668     311.4694     5209 
348000000   -990.17931    3336.8247    4568.0629    1569.8087    2757.1953     306.5594     5221 
349000000   -1028.0046         3240    4673.3024    1522.6016    2745.4029    313.62195     5212 
350000000   -999.76551    3337.6516    4631.3692    1542.5387    2794.8783    310.80784     5218 
351000000   -990.06867    3389.5006    4636.7874    1546.0302     2833.539    311.17145     5206 
352000000    -967.1754    3353.3044    4650.5385    1521.3425    2799.1374    312.09428     5212 
353000000   -1008.4401    3320.4684    4561.4347    1548.5161    2780.3924    306.11458     5215 
354000000   -982.05449    3385.9278    4575.6044    1564.8664    2803.1159     307.0655     5222 
355000000   -968.16645    3343.3153    4614.1126    1517.8813    2793.6004    309.64976     5214 
356000000   -1012.5651    3306.8676     4623.768    1482.0084    2837.4243    310.29773     5206 
357000000   -967.66388    3348.2942    4592.6746    1561.2716    2754.6864    308.21107     5216 
358000000    -952.9573    3345.0793    4570.9726    1519.5274    2778.5091    306.75466     5217 
359000000    -909.9212    3443.7747    4484.1306    1533.3823    2820.3137    300.92676     5218 
360000000   -914.15291    3420.3422    4660.4332      1511.45    2823.0451    312.75831     5214 
361000000   -952.67935    3431.2644    4693.1406    1505.9448     2877.999    314.95327     5208 
362000000   -943.25476     3405.984    4616.8918    1561.1184    2788.1204    309.83627     5221 
363000000   -932.29143    3360.2595    4574.1225    1520.1939     2772.357    306.96605     5209 
364000000   -969.14438    3477.1383    4617.5446    1577.5645    2868.7181    309.88008     5208 
365000000   -992.09459    3456.6752    4647.8415    1526.5851    2922.1846    311.91328     5218 
366000000   -982.66583    3375.3296    4657.1523    1527.6018    2830.3936    312.53812     5214 
367000000   -958.61043    3376.8106     4560.247    1532.4734    2802.9477    306.03488     5207 
368000000   -946.10072    3437.3888    4647.6562    1558.9857    2824.5039    311.90085     5204 
369000000    -948.3125    3355.3339    4690.9002    1529.0163    2774.6301    314.80292     5210 
370000000   -992.05784    3381.5921    4678.1674    1545.5059     2828.144    313.94843     5207 
371000000   -980.74485    3407.5001    4535.1522    1525.8092    2862.4358    304.35078     5214 
372000000   -991.14504     3520.228    4560.1703    1602.6069    2908.7662    306.02973     5209 
373000000    -963.5306    3292.3987    4723.3006    1480.1081    2775.8212    316.97729     5196 
374000000   -956.55737    3438.6792    4656.1423    1541.8107    2853.4259    312.47034     5217 
375000000   -967.44452    3414.9321    4571.0124    1564.3161    2818.0605    306.75734     5212 
376000000   -917.45113     3544.596    4514.6478    1581.9649    2880.0822    302.97475     5211 
377000000   -963.34853      3410.01    4593.6815    1573.6191    2799.7394    308.27864     5214 
378000000    -967.7087    3512.7149    4709.9864    1554.6253    2925.7982    316.08378     5209 
379000000   -963.18848    3429.5863    4643.7431    1501.9804    2890.7943    311.63824     5209 
380000000   -950.87123    3417.4626    4540.1925    1593.0534    2775.2805    304.68903     5205 
381000000   -933.89112    3484.9634    4687.1378    1557.2078    2861.6468    314.55043     5208 
382000000    -954.8828    3464.0474    4573.3996     1600.944    2817.9862    306.91754     5212 
383000000   -974.44944    3346.3148    4619.3842    1568.3154    2752.4489    310.00353     5208 
384000000   -984.49416    3382.9428    4698.7692    1539.2908    2828.1462    315.33101     5215 
385000000   -969.03254     3488.481    4716.5954    1588.5749    2868.9386    316.52731     5213 
386000000   -1002.5958    3384.6786    4621.5974    1542.8618    2844.4126    310.15206     5220 
387000000   -952.15222     3432.493    4598.3436    1527.6839    2856.9613    308.59152     5216 
388000000   -971.08512    3329.3047     4620.308    1499.8108     2800.579    310.06553     5207 
389000000   -956.97198    3416.9161     4560.251    1531.7277    2842.1603    306.03515     5213 
390000000   -987.20096    3346.2403    4595.6472     1508.513    2824.9282    308.41056     5205 
391000000   -981.00768     3464.107     4669.624    1564.6907    2880.4239    313.37509     5213 
392000000    -953.5611    3386.0658    4656.0348    1534.8387    2804.7883    312.46313     5215 
393000000   -961.15827    3338.1722     4537.157    1502.2398    2797.0906    304.48533     5215 
394000000   -914.41353    3459.5344    4649.5584    1515.3248    2858.6232     312.0285     5207 
395000000   -941.32228    3322.8189    4552.9157    1540.2674    2723.8738    305.54288     5208 
396000000   -946.42363     3392.914    4589.5317    1538.1305    2801.2071    308.00015     5218 
397000000   -962.97663    3355.6595    4564.2114    1553.0689    2765.5672    306.30093     5215 
398000000   -928.66224    3405.9169    4636.3456    1524.4105    2810.1687     311.1418     5207 
399000000   -927.67163    3393.9983    4575.1754    1545.7219     2775.948    307.03671     5209 
400000000   -982.26423      3394.86    4656.6229     1594.755    2782.3692    312.50259     5214 
Loop time of 19096.4 on 10 procs for 100000000 steps with 5000 atoms

Performance: 11311.051 ns/day, 0.002 hours/ns, 5236.597 timesteps/s
99.7% CPU use with 10 MPI tasks x no OpenMP threads

MPI task timing breakdown:
Section |  min time  |  avg time  |  max time  |%varavg| %total
---------------------------------------------------------------
Pair    | 4911.3     | 5343.9     | 6082.6     | 528.9 | 27.98
Bond    | 1566.1     | 1575.7     | 1590.2     |  22.6 |  8.25
Neigh   | 2721.2     | 2741.5     | 2765.8     |  27.3 | 14.36
Comm    | 4571.5     | 5340.6     | 5860.3     | 609.0 | 27.97
Output  | 0.50957    | 0.50968    | 0.50977    |   0.0 |  0.00
Modify  | 3402.5     | 3435.2     | 3535       |  67.1 | 17.99
Other   |            | 659        |            |       |  3.45

Nlocal:    500 ave 536 max 444 min
Histogram: 1 0 2 0 0 1 1 1 2 2
Nghost:    521.7 ave 693 max 429 min
Histogram: 4 0 1 2 1 0 0 0 0 2
Neighs:    5068.2 ave 5982 max 4341 min
Histogram: 2 1 0 1 3 1 0 0 0 2

Total # of neighbors = 50682
Ave neighs/atom = 10.1364
Ave special neighs/atom = 7.1652
Neighbor list builds = 5271841
Dangerous builds = 0
System init for write_restart ...
Total wall time: 5:18:16
