LAMMPS data file via write_data, version 5 Jun 2019, timestep = 370000000

5000 atoms
4 atom types
5208 bonds
3 bond types
4600 angles
2 angle types

-5.0000000000000000e+02 5.0000000000000000e+02 xlo xhi
-5.0000000000000000e+02 5.0000000000000000e+02 ylo yhi
-5.0000000000000000e+02 5.0000000000000000e+02 zlo zhi

Masses

1 1000
2 1000
3 1000
4 1000

Pair Coeffs # lj/cut

1 0.18 10
2 0.18 10
3 0.18 10
4 0.18 10

Bond Coeffs # harmonic

1 3 10
2 3 10
3 1.8 11.22

Angle Coeffs # cosine

1 2
2 2

Atoms # full

251 11 1 0.0000000000000000e+00 -1.3486063484350279e+02 -4.4002689698910189e+01 -2.3984720908179659e+02 0 0 0
252 11 2 0.0000000000000000e+00 -1.2889648928671565e+02 -3.6357616539280059e+01 -2.3955164582652583e+02 0 0 0
254 11 2 0.0000000000000000e+00 -1.3858228190320980e+02 -2.9921839034348480e+01 -2.2639270531471567e+02 0 0 0
253 11 2 0.0000000000000000e+00 -1.2949339977671050e+02 -3.2468577736806495e+01 -2.3040562218892470e+02 0 0 0
256 11 2 0.0000000000000000e+00 -1.4966870618381262e+02 -2.9184432151337351e+01 -2.0905351657042445e+02 0 0 0
255 11 2 0.0000000000000000e+00 -1.4387533561875514e+02 -3.0242541057301867e+01 -2.1730634044045564e+02 0 0 0
3513 141 3 0.0000000000000000e+00 -3.0099017945149708e+01 -3.3583984863249491e+01 -2.0734226199617609e+02 0 0 0
257 11 1 0.0000000000000000e+00 -1.5702432034961009e+02 -3.0836502699372431e+01 -2.0174529368861502e+02 0 0 0
3511 141 4 0.0000000000000000e+00 -4.3556278454433908e+01 -3.2805909160926298e+01 -1.9323963737001256e+02 0 0 0
3512 141 4 0.0000000000000000e+00 -3.8404752318637215e+01 -3.1134761978778887e+01 -2.0199685095372865e+02 0 0 0
3509 141 4 0.0000000000000000e+00 -3.6798413469608228e+01 -4.3957108820974184e+01 -1.8050949595904441e+02 0 0 0
3510 141 4 0.0000000000000000e+00 -4.3926924669108644e+01 -4.0497642478259493e+01 -1.8698698114232050e+02 0 0 0
1726 70 1 0.0000000000000000e+00 -1.7401823229147612e+02 -4.3729281137766428e+01 -1.6971201064893637e+02 0 0 0
1727 70 2 0.0000000000000000e+00 -1.6567732015704124e+02 -5.0108255651931152e+01 -1.6991419070735054e+02 0 0 0
3508 141 4 0.0000000000000000e+00 -2.8690943286267625e+01 -4.4518493586448905e+01 -1.7410344410041111e+02 0 0 0
3017 121 4 0.0000000000000000e+00 -3.0391042654466609e+01 -8.1299734776780184e+01 -1.6237425131850671e+02 0 0 0
3016 121 4 0.0000000000000000e+00 -3.5867747362243612e+01 -7.6839339466496270e+01 -1.5439930029082453e+02 0 0 0
1728 70 2 0.0000000000000000e+00 -1.6332863144140299e+02 -5.6549445308573411e+01 -1.6258197076216288e+02 0 0 0
1729 70 2 0.0000000000000000e+00 -1.6387954239733341e+02 -6.0067198704512698e+01 -1.5327240063142369e+02 0 0 0
3015 121 4 0.0000000000000000e+00 -3.1527261833633240e+01 -6.8164147198483391e+01 -1.5272732595236752e+02 0 0 0
3014 121 4 0.0000000000000000e+00 -2.7077166687663230e+01 -5.8635909066179913e+01 -1.5328784882134485e+02 0 0 0
1731 70 2 0.0000000000000000e+00 -1.5018361781702609e+02 -4.5563380543715795e+01 -1.5042364726187455e+02 0 0 0
1730 70 2 0.0000000000000000e+00 -1.5544319667999406e+02 -5.4517210662051276e+01 -1.5282184449423463e+02 0 0 0
845 34 2 0.0000000000000000e+00 -6.0565949788413974e+01 -4.6694450624210894e+01 -1.5300898488049643e+02 0 0 0
844 34 1 0.0000000000000000e+00 -5.0153595358793304e+01 -4.6751140022389350e+01 -1.5411167547363701e+02 0 0 0
843 34 2 0.0000000000000000e+00 -4.0376595028718391e+01 -4.5494599581157061e+01 -1.5495099923089833e+02 0 0 0
842 34 2 0.0000000000000000e+00 -3.1952920942732121e+01 -4.6418050448820892e+01 -1.5012422107185066e+02 0 0 0
407 17 1 0.0000000000000000e+00 -3.1017647163062520e+01 -8.8399511987374055e+01 -1.3848530931726290e+02 0 0 0
408 17 2 0.0000000000000000e+00 -2.8517659095337290e+01 -8.8510459866431148e+01 -1.4834342795528147e+02 0 0 0
1735 70 2 0.0000000000000000e+00 -1.4201963096858577e+02 -7.0945386894535432e+01 -1.3946312666885211e+02 0 0 0
1733 70 2 0.0000000000000000e+00 -1.3632396891422178e+02 -5.5886579157426347e+01 -1.4639909206655273e+02 0 0 0
1734 70 2 0.0000000000000000e+00 -1.3652881212105169e+02 -6.6059203259709975e+01 -1.4524581454391890e+02 0 0 0
3063 123 3 0.0000000000000000e+00 -1.4529207216385032e+02 -4.7229662518095211e+01 -1.3942518008440027e+02 0 0 0
1732 70 1 0.0000000000000000e+00 -1.4037830121988588e+02 -4.6969790037535290e+01 -1.4935287865660868e+02 0 0 0
848 34 2 0.0000000000000000e+00 -8.3284924192126809e+01 -4.4945467859386433e+01 -1.4046792892246404e+02 0 0 0
847 34 2 0.0000000000000000e+00 -7.4166219899499595e+01 -4.7379955425442603e+01 -1.4372132574563486e+02 0 0 0
846 34 2 0.0000000000000000e+00 -6.8051792803235728e+01 -5.2640942976055648e+01 -1.4939336129351139e+02 0 0 0
841 34 2 0.0000000000000000e+00 -3.4035548068093433e+01 -4.1318245088696251e+01 -1.4168690180120106e+02 0 0 0
4924 197 4 0.0000000000000000e+00 -1.0916451982819279e+02 -1.2270228661395844e+02 -1.2346598341918818e+02 0 0 0
4923 197 4 0.0000000000000000e+00 -9.9607925450308755e+01 -1.2065847283024799e+02 -1.2739839250535599e+02 0 0 0
4819 193 3 0.0000000000000000e+00 -1.6225344197986502e+02 -8.7609962178427921e+01 -1.2370556527597871e+02 0 0 0
1850 74 1 0.0000000000000000e+00 -1.5197850764892070e+02 -8.9635644521828297e+01 -1.2840145055156890e+02 0 0 0
406 17 2 0.0000000000000000e+00 -3.0546408663358601e+01 -9.0289329163030388e+01 -1.2828232754615885e+02 0 0 0
4820 193 4 0.0000000000000000e+00 -1.6456584661690559e+02 -7.7426051560998332e+01 -1.2627905676510109e+02 0 0 0
1736 70 2 0.0000000000000000e+00 -1.4255128648626084e+02 -7.2371776659837280e+01 -1.2959022951284894e+02 0 0 0
1737 70 2 0.0000000000000000e+00 -1.3724344778866953e+02 -7.8534741747754055e+01 -1.2357714566063103e+02 0 0 0
4864 195 4 0.0000000000000000e+00 -2.9978311953049953e+01 -8.0018401562696468e+01 -1.3038480570852363e+02 0 0 0
4865 195 4 0.0000000000000000e+00 -2.8236121632372022e+01 -7.2349396420935236e+01 -1.2457755220256539e+02 0 0 0
4821 193 4 0.0000000000000000e+00 -1.6797221118378963e+02 -6.7770565918701024e+01 -1.2436090596194072e+02 0 0 0
4822 193 4 0.0000000000000000e+00 -1.6557817196218141e+02 -5.8156855519798619e+01 -1.2540209401088856e+02 0 0 0
2161 87 2 0.0000000000000000e+00 -3.0235593920464588e+01 -5.5241892372416714e+01 -1.2786314788818412e+02 0 0 0
2160 87 2 0.0000000000000000e+00 -2.6417541393921869e+01 -5.9499902404315812e+01 -1.3590489349506598e+02 0 0 0
3062 123 4 0.0000000000000000e+00 -1.5430706318336905e+02 -4.5008782114603513e+01 -1.3482519766884752e+02 0 0 0
3061 123 4 0.0000000000000000e+00 -1.6071297381819701e+02 -4.2127363735647158e+01 -1.2810017557329192e+02 0 0 0
3064 123 4 0.0000000000000000e+00 -1.3632536823710629e+02 -4.8021988117385519e+01 -1.3516953351789729e+02 0 0 0
3065 123 4 0.0000000000000000e+00 -1.3290539931907452e+02 -5.2780958801612670e+01 -1.2713138038580261e+02 0 0 0
850 34 1 0.0000000000000000e+00 -1.0110292278194218e+02 -4.4956303323760459e+01 -1.3537125186389264e+02 0 0 0
849 34 2 0.0000000000000000e+00 -9.1546161308258434e+01 -4.6453006768378629e+01 -1.3547480771820980e+02 0 0 0
2825 113 3 0.0000000000000000e+00 -6.8644590371740449e+01 -4.1774518922072318e+01 -1.2740849687898570e+02 0 0 0
2158 87 2 0.0000000000000000e+00 -3.9487752817251518e+01 -4.6839173440079904e+01 -1.2997636121022151e+02 0 0 0
2159 87 2 0.0000000000000000e+00 -3.3467850483199285e+01 -5.2297016225141832e+01 -1.3586834721667631e+02 0 0 0
4398 176 4 0.0000000000000000e+00 -5.7840732151404012e+01 -3.8960760293193644e+01 -1.2634932886296465e+02 0 0 0
4399 176 4 0.0000000000000000e+00 -5.4497410066611252e+01 -3.4901529948791485e+01 -1.3441657265107276e+02 0 0 0
4400 176 3 0.0000000000000000e+00 -4.4363310055744137e+01 -3.2174032638543807e+01 -1.3596970898398718e+02 0 0 0
2157 87 1 0.0000000000000000e+00 -3.9736656123335692e+01 -3.6804790771654886e+01 -1.2697703818289315e+02 0 0 0
4571 183 4 0.0000000000000000e+00 -2.8692831196229008e+01 -3.2672828755612258e+01 -1.2411357544636761e+02 0 0 0
840 34 2 0.0000000000000000e+00 -3.4944172849325383e+01 -3.3172775376694780e+01 -1.3621008599678498e+02 0 0 0
4925 197 3 0.0000000000000000e+00 -1.1400104724156941e+02 -1.2877630610173466e+02 -1.1658653630381002e+02 0 0 0
1450 58 1 0.0000000000000000e+00 -1.0310195180867993e+02 -1.3046216846930054e+02 -1.1349563957865446e+02 0 0 0
4921 197 4 0.0000000000000000e+00 -8.3292865976343521e+01 -1.2786576301420695e+02 -1.2202435414470267e+02 0 0 0
4922 197 4 0.0000000000000000e+00 -9.1291767769955882e+01 -1.2290139906332578e+02 -1.2284192834674242e+02 0 0 0
4920 197 4 0.0000000000000000e+00 -7.3401165413022099e+01 -1.2906289118204742e+02 -1.2054885374699494e+02 0 0 0
4919 197 3 0.0000000000000000e+00 -6.5018909124785807e+01 -1.3161268168688972e+02 -1.1560280690968433e+02 0 0 0
1740 70 2 0.0000000000000000e+00 -1.1549531772662591e+02 -9.5768073917397871e+01 -1.2244421640550591e+02 0 0 0
404 17 2 0.0000000000000000e+00 -3.7013351429187203e+01 -9.8594990762285349e+01 -1.1148440415602380e+02 0 0 0
4818 193 4 0.0000000000000000e+00 -1.6191307947381929e+02 -9.5003829104387975e+01 -1.1690624056520670e+02 0 0 0
1849 74 2 0.0000000000000000e+00 -1.5147216682327249e+02 -8.7276638895135434e+01 -1.1874511740787712e+02 0 0 0
1848 74 2 0.0000000000000000e+00 -1.5412898451405493e+02 -8.2755297857920183e+01 -1.1076130429738421e+02 0 0 0
1739 70 2 0.0000000000000000e+00 -1.2438631580597534e+02 -9.2719891330679246e+01 -1.2097970756763755e+02 0 0 0
4801 193 3 0.0000000000000000e+00 -1.2395961406950427e+02 -8.4668704816280979e+01 -1.1244815401946641e+02 0 0 0
1738 70 1 0.0000000000000000e+00 -1.3204222236418812e+02 -8.5995555795723973e+01 -1.1968406575506613e+02 0 0 0
1741 70 2 0.0000000000000000e+00 -1.1373475697065885e+02 -8.7448009409971505e+01 -1.1764507106566940e+02 0 0 0
405 17 2 0.0000000000000000e+00 -3.1150597091154012e+01 -9.5358707688432531e+01 -1.1960914674710773e+02 0 0 0
4814 193 4 0.0000000000000000e+00 -1.3797875806998769e+02 -8.0406848172490029e+01 -1.1009191018551392e+02 0 0 0
4812 193 4 0.0000000000000000e+00 -1.2388766608325899e+02 -7.0328357287616271e+01 -1.1665826826051610e+02 0 0 0
4813 193 3 0.0000000000000000e+00 -1.2863979950617338e+02 -7.6762426297633397e+01 -1.1102150494197835e+02 0 0 0
4810 193 4 0.0000000000000000e+00 -1.0915764245925251e+02 -7.7581907703633192e+01 -1.1956169923793712e+02 0 0 0
4811 193 4 0.0000000000000000e+00 -1.1855855042832992e+02 -7.6670520212686853e+01 -1.2214867811155133e+02 0 0 0
1742 70 2 0.0000000000000000e+00 -1.1551224325185883e+02 -8.1540334047143034e+01 -1.1005253272258119e+02 0 0 0
4809 193 4 0.0000000000000000e+00 -1.0266918649588222e+02 -8.0182921854044082e+01 -1.1290698926273542e+02 0 0 0
4866 195 4 0.0000000000000000e+00 -2.8215303308182612e+01 -6.4229346136013959e+01 -1.1969404126672057e+02 0 0 0
4823 193 4 0.0000000000000000e+00 -1.6305401597134173e+02 -5.1537474694451944e+01 -1.1797918575890695e+02 0 0 0
4824 193 4 0.0000000000000000e+00 -1.5327939419655749e+02 -5.0371265052745201e+01 -1.1686082589893896e+02 0 0 0
4825 193 3 0.0000000000000000e+00 -1.4683575481147511e+02 -4.4409861630261560e+01 -1.1304148942854914e+02 0 0 0
3066 123 4 0.0000000000000000e+00 -1.3560935079215372e+02 -4.5065557464797536e+01 -1.2076373146433575e+02 0 0 0
3051 123 3 0.0000000000000000e+00 -8.5679617832026750e+01 -4.4214423251337671e+01 -1.1184532460313847e+02 0 0 0
2823 113 4 0.0000000000000000e+00 -7.1625826878613111e+01 -4.6602695912550374e+01 -1.1017603561680707e+02 0 0 0
4397 176 4 0.0000000000000000e+00 -6.1821336873192529e+01 -4.5490749981625534e+01 -1.1885354696313507e+02 0 0 0
3060 123 4 0.0000000000000000e+00 -1.5733149509545774e+02 -3.7347109082697045e+01 -1.2025868349831958e+02 0 0 0
3059 123 4 0.0000000000000000e+00 -1.5486004422999497e+02 -3.5945522902911932e+01 -1.1074275510860713e+02 0 0 0
3067 123 4 0.0000000000000000e+00 -1.3466502782456607e+02 -3.5362932302089661e+01 -1.2201758932603857e+02 0 0 0
2824 113 4 0.0000000000000000e+00 -7.2797202361819188e+01 -4.1121609612859956e+01 -1.1828854291858558e+02 0 0 0
4917 197 4 0.0000000000000000e+00 -6.8717066380937752e+01 -1.4026663380142423e+02 -1.0010120451174299e+02 0 0 0
1449 58 2 0.0000000000000000e+00 -9.8715693059606011e+01 -1.2341800381149355e+02 -1.0775274971927688e+02 0 0 0
1448 58 2 0.0000000000000000e+00 -9.1524486206307301e+01 -1.2353648434245018e+02 -1.0073450931659069e+02 0 0 0
1447 58 2 0.0000000000000000e+00 -8.2599840891568817e+01 -1.2787498109588034e+02 -1.0200217749041713e+02 0 0 0
1446 58 2 0.0000000000000000e+00 -7.4233212726579197e+01 -1.2972956679900980e+02 -9.6834034997524824e+01 0 0 0
4918 197 4 0.0000000000000000e+00 -6.3443051041450431e+01 -1.3504127618312586e+02 -1.0612433204212338e+02 0 0 0
1445 58 2 0.0000000000000000e+00 -6.4317829247822374e+01 -1.3061388286804890e+02 -9.7334058986608241e+01 0 0 0
4803 193 4 0.0000000000000000e+00 -1.2102101838373110e+02 -1.0012113340726303e+02 -1.0370284487633030e+02 0 0 0
4375 175 3 0.0000000000000000e+00 -6.0091214439116278e+01 -1.0269427481535624e+02 -1.0209754636711800e+02 0 0 0
4817 193 4 0.0000000000000000e+00 -1.5572402485630585e+02 -9.3293536338727208e+01 -1.0883557987378279e+02 0 0 0
4816 193 4 0.0000000000000000e+00 -1.4860866193068898e+02 -9.4627414196604946e+01 -1.0195582550129565e+02 0 0 0
4815 193 4 0.0000000000000000e+00 -1.4330218083892217e+02 -8.7712554384947154e+01 -1.0626165469974612e+02 0 0 0
4802 193 4 0.0000000000000000e+00 -1.1861742210267178e+02 -9.2498678507795532e+01 -1.0932573119302971e+02 0 0 0
1743 70 2 0.0000000000000000e+00 -1.1333862445601757e+02 -8.4050405677006722e+01 -1.0108762007812349e+02 0 0 0
4808 193 4 0.0000000000000000e+00 -1.0126341868177127e+02 -8.2052327305626491e+01 -1.0315761964597317e+02 0 0 0
475 19 1 0.0000000000000000e+00 -5.8260210124054723e+01 -9.1023468248461313e+01 -1.0315875975187778e+02 0 0 0
474 19 2 0.0000000000000000e+00 -6.0805839563129936e+01 -8.2409267700891249e+01 -9.8856274929735235e+01 0 0 0
403 17 2 0.0000000000000000e+00 -4.3238637059521452e+01 -9.3316410884524004e+01 -1.0594765606562792e+02 0 0 0
402 17 2 0.0000000000000000e+00 -4.7193583982204764e+01 -8.3960161101182294e+01 -1.0518323605242173e+02 0 0 0
1847 74 2 0.0000000000000000e+00 -1.4954596866889290e+02 -7.6833528143172671e+01 -1.0374058611986990e+02 0 0 0
1846 74 2 0.0000000000000000e+00 -1.4460185996462781e+02 -8.0572521374610787e+01 -9.6507976398921940e+01 0 0 0
1844 74 1 0.0000000000000000e+00 -1.3015308137271592e+02 -7.2085412335569188e+01 -1.0119259902466476e+02 0 0 0
473 19 2 0.0000000000000000e+00 -6.3472015041924053e+01 -7.3091034486376927e+01 -9.7691188228605753e+01 0 0 0
401 17 1 0.0000000000000000e+00 -4.9835396662278761e+01 -7.4656975070755252e+01 -1.0230982453443164e+02 0 0 0
4377 176 4 0.0000000000000000e+00 -3.3912744409150072e+01 -8.0398449719492135e+01 -9.7669069291441915e+01 0 0 0
2820 113 4 0.0000000000000000e+00 -9.7092329028355238e+01 -5.5587858485348299e+01 -1.0106138401190371e+02 0 0 0
1175 47 1 0.0000000000000000e+00 -1.4975697096173300e+02 -4.8989018865797462e+01 -1.0335455507872717e+02 0 0 0
1174 47 2 0.0000000000000000e+00 -1.4186550432827420e+02 -4.3269692978632854e+01 -1.0008251504214856e+02 0 0 0
3052 123 4 0.0000000000000000e+00 -9.5120637690668886e+01 -4.3905233629917234e+01 -1.0873946307295851e+02 0 0 0
2821 113 4 0.0000000000000000e+00 -8.9383271760998511e+01 -5.4355477211651419e+01 -1.0753070402909779e+02 0 0 0
2822 113 4 0.0000000000000000e+00 -7.9284096578677307e+01 -5.2337915964970442e+01 -1.0830432429196277e+02 0 0 0
470 19 2 0.0000000000000000e+00 -6.7427777556753313e+01 -4.3764371736139417e+01 -9.6542903786148145e+01 0 0 0
4396 176 4 0.0000000000000000e+00 -6.0884239226492369e+01 -4.7844962558993416e+01 -1.0891846020735341e+02 0 0 0
4395 176 4 0.0000000000000000e+00 -5.5178267545884133e+01 -4.8362401646976906e+01 -1.0064714160843309e+02 0 0 0
471 19 2 0.0000000000000000e+00 -6.3970475195626996e+01 -5.3351184491812568e+01 -9.6676495582837887e+01 0 0 0
3058 123 4 0.0000000000000000e+00 -1.4611929463969793e+02 -3.2873851601835284e+01 -1.0713109314174237e+02 0 0 0
3057 123 3 0.0000000000000000e+00 -1.3819112252156452e+02 -2.8999207867746552e+01 -1.0245697221223985e+02 0 0 0
3056 123 4 0.0000000000000000e+00 -1.2764945405556426e+02 -2.8657800101473359e+01 -9.9619537136217502e+01 0 0 0
3055 123 4 0.0000000000000000e+00 -1.1840114328261942e+02 -3.1588781557695793e+01 -9.8396262456775020e+01 0 0 0
3054 123 4 0.0000000000000000e+00 -1.0973096290207761e+02 -3.5029024287456295e+01 -9.8151566410199962e+01 0 0 0
3053 123 4 0.0000000000000000e+00 -1.0241472127900066e+02 -4.1148028411523597e+01 -1.0272351540374791e+02 0 0 0
4915 197 4 0.0000000000000000e+00 -6.8459399906299140e+01 -1.4939071165985266e+02 -8.6878015689938550e+01 0 0 0
4916 197 4 0.0000000000000000e+00 -7.4706412055773825e+01 -1.4530419538142490e+02 -9.3221169046642316e+01 0 0 0
1444 58 1 0.0000000000000000e+00 -6.1981112675874122e+01 -1.3701655830315084e+02 -8.9724079675830737e+01 0 0 0
1427 58 2 0.0000000000000000e+00 -4.7117176620674840e+01 -1.4899581712399339e+02 -8.9027348378900030e+01 0 0 0
1428 58 2 0.0000000000000000e+00 -3.8836321060950560e+01 -1.4360410966872175e+02 -8.7492339680993453e+01 0 0 0
4804 193 4 0.0000000000000000e+00 -1.1472004733150798e+02 -1.0055182150124735e+02 -9.5429376871512574e+01 0 0 0
4805 193 4 0.0000000000000000e+00 -1.0993886447592115e+02 -9.8360984401717687e+01 -8.6649026122321075e+01 0 0 0
4374 175 4 0.0000000000000000e+00 -6.4879190385043188e+01 -9.9435828643873563e+01 -9.3696692606954187e+01 0 0 0
4373 175 4 0.0000000000000000e+00 -6.1862469515096961e+01 -9.9210921158019673e+01 -8.4045176026933930e+01 0 0 0
1744 70 1 0.0000000000000000e+00 -1.1331712404040407e+02 -8.7844814113329875e+01 -9.1863242934812305e+01 0 0 0
4807 193 3 0.0000000000000000e+00 -1.0276596226449502e+02 -8.5896116631396282e+01 -9.3892295055583730e+01 0 0 0
4806 193 4 0.0000000000000000e+00 -1.0386451569306558e+02 -9.0370305816989713e+01 -8.5080554070668313e+01 0 0 0
1845 74 2 0.0000000000000000e+00 -1.3717149928950818e+02 -7.4370297127715830e+01 -9.3879932880836279e+01 0 0 0
4376 176 3 0.0000000000000000e+00 -4.3444201242733449e+01 -7.9618151835542392e+01 -9.4923014218083637e+01 0 0 0
4378 176 4 0.0000000000000000e+00 -2.7077069085596083e+01 -8.1365999735341674e+01 -9.1227975647755059e+01 0 0 0
4379 176 4 0.0000000000000000e+00 -3.0048292267070362e+01 -7.5441413971562213e+01 -8.3848276808965224e+01 0 0 0
1843 74 2 0.0000000000000000e+00 -1.2319307176190836e+02 -6.7431844383454774e+01 -9.5206751607252471e+01 0 0 0
1842 74 2 0.0000000000000000e+00 -1.1801028358833648e+02 -6.6387441910671853e+01 -8.6233344317572204e+01 0 0 0
2818 113 4 0.0000000000000000e+00 -1.0084518373440514e+02 -6.7571366167931998e+01 -8.7787194387144154e+01 0 0 0
2819 113 3 0.0000000000000000e+00 -1.0244626280995888e+02 -5.9608216005335130e+01 -9.3413143725699641e+01 0 0 0
472 19 2 0.0000000000000000e+00 -6.2593399378546174e+01 -6.3076450810248879e+01 -9.5744314079230136e+01 0 0 0
3749 150 4 0.0000000000000000e+00 -6.8705778252420259e+01 -4.2101140783647701e+01 -8.5484786991101174e+01 0 0 0
4394 176 3 0.0000000000000000e+00 -5.7267117271266919e+01 -4.1607241742754098e+01 -9.3771940748340825e+01 0 0 0
3748 150 4 0.0000000000000000e+00 -6.0259989717460712e+01 -4.7372580218111167e+01 -8.3477014965985219e+01 0 0 0
1173 47 2 0.0000000000000000e+00 -1.4297601371246120e+02 -3.5030865710726275e+01 -9.3725450142972690e+01 0 0 0
3750 150 3 0.0000000000000000e+00 -7.6001883787497945e+01 -3.8423752756446653e+01 -9.1270500670258684e+01 0 0 0
1882 76 1 0.0000000000000000e+00 -7.2201377152135620e+01 -2.8735456277762069e+01 -8.7915554761257582e+01 0 0 0
469 19 1 0.0000000000000000e+00 -6.5818710738059067e+01 -3.3768130151393642e+01 -9.5488560702703722e+01 0 0 0
4393 176 4 0.0000000000000000e+00 -6.1795249663847130e+01 -3.5391429935090301e+01 -8.7124833206185926e+01 0 0 0
465 19 2 0.0000000000000000e+00 -3.5847979696456690e+01 -3.0286618077402295e+01 -8.8106866454315252e+01 0 0 0
4914 197 4 0.0000000000000000e+00 -6.0968815369999248e+01 -1.5185900356332937e+02 -8.0572808283012591e+01 0 0 0
4913 197 3 0.0000000000000000e+00 -5.5295085213231076e+01 -1.5427842616063487e+02 -7.3018221523897935e+01 0 0 0
1426 58 1 0.0000000000000000e+00 -4.8861053117783243e+01 -1.5672093613285816e+02 -8.2709022233136054e+01 0 0 0
1443 58 2 0.0000000000000000e+00 -5.7555941585952333e+01 -1.3736479642846004e+02 -8.0195609655199462e+01 0 0 0
1429 58 2 0.0000000000000000e+00 -3.8293127238735011e+01 -1.3667540036205418e+02 -8.0326987308723233e+01 0 0 0
1442 58 2 0.0000000000000000e+00 -5.6007424063604894e+01 -1.2952824941646193e+02 -7.4288786981591258e+01 0 0 0
1430 58 2 0.0000000000000000e+00 -3.3046709105156943e+01 -1.2986293266068932e+02 -7.3857865451821468e+01 0 0 0
4509 181 4 0.0000000000000000e+00 -7.6952312599175912e+01 -1.1567400925219297e+02 -7.3384519732690165e+01 0 0 0
4508 181 4 0.0000000000000000e+00 -6.8001352248590038e+01 -1.1236621330709170e+02 -6.9838764797313218e+01 0 0 0
4372 175 4 0.0000000000000000e+00 -5.7505646877674920e+01 -9.8252379554869449e+01 -7.5544471160105871e+01 0 0 0
1745 70 2 0.0000000000000000e+00 -1.1624528090694018e+02 -8.4312749911832810e+01 -8.2522060960055839e+01 0 0 0
1746 70 2 0.0000000000000000e+00 -1.1624050248278162e+02 -8.0284177834461516e+01 -7.2909989155789603e+01 0 0 0
2817 113 4 0.0000000000000000e+00 -9.4697395549500271e+01 -7.0905351745899665e+01 -8.1041918416296141e+01 0 0 0
3742 150 4 0.0000000000000000e+00 -8.7210228240474336e+01 -7.5781003983362723e+01 -7.2883050493764529e+01 0 0 0
3743 150 4 0.0000000000000000e+00 -7.7749977909400954e+01 -7.7301008568032017e+01 -7.5419455900264708e+01 0 0 0
4380 176 4 0.0000000000000000e+00 -2.6492448774009500e+01 -7.5295302340354780e+01 -7.4544253868956972e+01 0 0 0
1841 74 2 0.0000000000000000e+00 -1.1755102732413165e+02 -5.8337707496282263e+01 -7.9760341884676762e+01 0 0 0
2816 113 4 0.0000000000000000e+00 -8.7506944833367839e+01 -6.4384577135738780e+01 -8.2292249565754659e+01 0 0 0
2815 113 4 0.0000000000000000e+00 -8.7833086887221341e+01 -5.6695761726290513e+01 -7.6128443319365786e+01 0 0 0
3746 150 4 0.0000000000000000e+00 -6.3599131729441346e+01 -6.1733684184927441e+01 -6.9685298408229343e+01 0 0 0
1840 74 2 0.0000000000000000e+00 -1.1501977011694727e+02 -5.3368742018224822e+01 -7.1755495747546959e+01 0 0 0
1839 74 2 0.0000000000000000e+00 -1.1217467930015395e+02 -4.3277823328849962e+01 -6.9781311421128990e+01 0 0 0
3747 150 4 0.0000000000000000e+00 -6.0784010500516921e+01 -5.4412287034408799e+01 -7.6244923984989128e+01 0 0 0
3725 149 3 0.0000000000000000e+00 -1.6933385576093008e+02 -2.8105557449399491e+01 -7.8191158444214608e+01 0 0 0
1838 74 1 0.0000000000000000e+00 -1.0544237807362285e+02 -3.5616910042883966e+01 -7.4045925213950753e+01 0 0 0
1837 74 2 0.0000000000000000e+00 -9.9433052421074223e+01 -3.0416185591078960e+01 -8.0451921108108621e+01 0 0 0
4300 172 3 0.0000000000000000e+00 -9.6523556043750276e+01 -2.9352067796269200e+01 -7.0817677160666605e+01 0 0 0
4299 172 4 0.0000000000000000e+00 -8.9538942590038261e+01 -3.5751114577199424e+01 -7.4069116328244590e+01 0 0 0
4392 176 4 0.0000000000000000e+00 -6.5812555533695402e+01 -3.2808149481680616e+01 -7.7745255289073185e+01 0 0 0
466 19 2 0.0000000000000000e+00 -4.3756770390416385e+01 -2.8351951688478174e+01 -8.2684913518408450e+01 0 0 0
4911 197 4 0.0000000000000000e+00 -6.4549304844931854e+01 -1.6097006530949605e+02 -6.0586349788817188e+01 0 0 0
4912 197 4 0.0000000000000000e+00 -5.7674059798549834e+01 -1.6202229810255949e+02 -6.7179131992905042e+01 0 0 0
1440 58 2 0.0000000000000000e+00 -7.2048470013318934e+01 -1.2547667233156378e+02 -6.2733034211434806e+01 0 0 0
1441 58 2 0.0000000000000000e+00 -6.3667740186088885e+01 -1.2968715040905889e+02 -6.7713974328347106e+01 0 0 0
4367 175 4 0.0000000000000000e+00 -5.7171550611658333e+01 -1.3585586211759409e+02 -6.2489608713908645e+01 0 0 0
4368 175 4 0.0000000000000000e+00 -4.9024621724618456e+01 -1.3040447930185937e+02 -6.3409229354339352e+01 0 0 0
1431 58 2 0.0000000000000000e+00 -3.6885610095700379e+01 -1.2912311484389352e+02 -6.4034542469240577e+01 0 0 0
4514 181 4 0.0000000000000000e+00 -1.1114631445241565e+02 -1.1386451693067551e+02 -6.1226296146175436e+01 0 0 0
4510 181 4 0.0000000000000000e+00 -8.6236838874984159e+01 -1.1861386323679940e+02 -6.9049173841461183e+01 0 0 0
4511 181 4 0.0000000000000000e+00 -9.2947473168984402e+01 -1.1194457346856811e+02 -6.4988845171415576e+01 0 0 0
1439 58 2 0.0000000000000000e+00 -7.3493996963718615e+01 -1.1573195639104078e+02 -5.9568365158792481e+01 0 0 0
4507 181 3 0.0000000000000000e+00 -6.2947202855217313e+01 -1.1306622240465352e+02 -6.0290526090896435e+01 0 0 0
4370 175 4 0.0000000000000000e+00 -5.3159516825891558e+01 -1.1194774518729803e+02 -6.2628860175291194e+01 0 0 0
4369 175 3 0.0000000000000000e+00 -4.8071428834400074e+01 -1.2038514260176119e+02 -6.1876520258254459e+01 0 0 0
4524 181 4 0.0000000000000000e+00 -1.8425555754344259e+02 -9.8156892000622605e+01 -5.6613170946477524e+01 0 0 0
1526 62 1 0.0000000000000000e+00 -1.7759901147783549e+02 -1.0635636090411349e+02 -5.9336257752991202e+01 0 0 0
4519 181 3 0.0000000000000000e+00 -1.4368227875828114e+02 -9.5464747094895074e+01 -5.8955947152685440e+01 0 0 0
4518 181 4 0.0000000000000000e+00 -1.3600769516179147e+02 -9.9805664746220657e+01 -6.4142953220457585e+01 0 0 0
4517 181 4 0.0000000000000000e+00 -1.3296869753853196e+02 -1.0666038815712413e+02 -5.7397061574322329e+01 0 0 0
4513 181 3 0.0000000000000000e+00 -1.0835197022107610e+02 -1.0471901440677593e+02 -5.7899110852575156e+01 0 0 0
4512 181 4 0.0000000000000000e+00 -9.9370869141517673e+01 -1.0427116182968852e+02 -6.3383085754914489e+01 0 0 0
2080 84 2 0.0000000000000000e+00 -7.2255419965399852e+01 -1.0449490871788859e+02 -5.8249450069667965e+01 0 0 0
2081 84 2 0.0000000000000000e+00 -7.3684679318463353e+01 -1.0367978901363156e+02 -6.8620177584487479e+01 0 0 0
2082 84 1 0.0000000000000000e+00 -6.6186034682399836e+01 -9.8270930965117969e+01 -6.5818260445779813e+01 0 0 0
4371 175 4 0.0000000000000000e+00 -5.6074214268129822e+01 -1.0304828363044291e+02 -6.6574722704440120e+01 0 0 0
4523 181 4 0.0000000000000000e+00 -1.7841613274312573e+02 -9.1472534848560031e+01 -6.0781075505649248e+01 0 0 0
4521 181 4 0.0000000000000000e+00 -1.6155974775620123e+02 -9.2087507621670525e+01 -5.9788080622061301e+01 0 0 0
4522 181 4 0.0000000000000000e+00 -1.7029956710709999e+02 -8.8318952880881696e+01 -5.6071937170394307e+01 0 0 0
4520 181 4 0.0000000000000000e+00 -1.5247897408355237e+02 -9.3765667393978021e+01 -6.3713344799706803e+01 0 0 0
2077 84 2 0.0000000000000000e+00 -7.4657388757075424e+01 -8.9449109314795706e+01 -5.9941916208092685e+01 0 0 0
2083 84 2 0.0000000000000000e+00 -6.2274980280522279e+01 -8.9176139851029760e+01 -6.4368327642339040e+01 0 0 0
2084 84 2 0.0000000000000000e+00 -5.8935396869943418e+01 -8.2919949234201823e+01 -5.7223505417229447e+01 0 0 0
1747 70 2 0.0000000000000000e+00 -1.1410383551757555e+02 -7.7990202956006897e+01 -6.3295729455846185e+01 0 0 0
1748 70 2 0.0000000000000000e+00 -1.0434571090574157e+02 -7.7572249916796906e+01 -6.0393999587028347e+01 0 0 0
3741 150 4 0.0000000000000000e+00 -9.2498212157660859e+01 -7.9314619618176337e+01 -6.4623127155549909e+01 0 0 0
3744 150 3 0.0000000000000000e+00 -7.0732240722041482e+01 -7.7456801979348327e+01 -6.8182215614810687e+01 0 0 0
2076 84 1 0.0000000000000000e+00 -7.9801441004140457e+01 -8.0990387875091230e+01 -6.3421841055841128e+01 0 0 0
3745 150 4 0.0000000000000000e+00 -6.4587049871650109e+01 -7.0992253674653782e+01 -6.4546543476853174e+01 0 0 0
4382 176 3 0.0000000000000000e+00 -2.9078893465444271e+01 -7.0823073563199941e+01 -5.8612066803859172e+01 0 0 0
4946 198 4 0.0000000000000000e+00 -1.0948974658414259e+02 -5.6484153342184968e+01 -5.9846205941343342e+01 0 0 0
589 24 2 0.0000000000000000e+00 -8.7539941882989353e+01 -5.6029114664970251e+01 -5.7196456761537625e+01 0 0 0
1154 47 2 0.0000000000000000e+00 -1.4956480633009824e+02 -4.4676525129355376e+01 -5.6868887534306531e+01 0 0 0
4943 198 4 0.0000000000000000e+00 -1.3244922941980059e+02 -4.3672285519263781e+01 -6.3476643404064909e+01 0 0 0
4945 198 4 0.0000000000000000e+00 -1.1623290732401544e+02 -4.7995758843782241e+01 -5.8833017199107665e+01 0 0 0
2813 113 3 0.0000000000000000e+00 -9.2954651447258186e+01 -4.7377612222196241e+01 -5.9145503018017507e+01 0 0 0
2814 113 4 0.0000000000000000e+00 -9.2153622761966460e+01 -5.4419424235790068e+01 -6.6872138076773638e+01 0 0 0
590 24 2 0.0000000000000000e+00 -8.1268170701561075e+01 -5.2269613833780511e+01 -6.4131863710144657e+01 0 0 0
591 24 2 0.0000000000000000e+00 -7.4460442746872928e+01 -4.6949910098771291e+01 -5.8575116337832078e+01 0 0 0
1151 47 1 0.0000000000000000e+00 -1.6805989268087609e+02 -2.9639713548426439e+01 -5.6221731722264963e+01 0 0 0
4942 198 4 0.0000000000000000e+00 -1.3488612784819441e+02 -3.3934681972852779e+01 -6.3154442441083035e+01 0 0 0
4944 198 3 0.0000000000000000e+00 -1.2303311736723849e+02 -4.0995114583049833e+01 -6.0165412344294296e+01 0 0 0
4391 176 4 0.0000000000000000e+00 -7.0695410609297113e+01 -3.2844576186045529e+01 -6.8588302395165158e+01 0 0 0
4390 176 4 0.0000000000000000e+00 -6.6517757952315094e+01 -3.2997907056657958e+01 -5.9827745981430787e+01 0 0 0
4909 197 4 0.0000000000000000e+00 -7.4763061536695801e+01 -1.5769759033546765e+02 -4.4225775588449238e+01 0 0 0
4910 197 4 0.0000000000000000e+00 -6.9598858468211347e+01 -1.5641211172152470e+02 -5.3457340637064959e+01 0 0 0
4366 175 4 0.0000000000000000e+00 -5.7059852844313362e+01 -1.3051974263870690e+02 -5.4460548804465141e+01 0 0 0
4365 175 4 0.0000000000000000e+00 -5.0238251598748668e+01 -1.2458604092922609e+02 -5.2388832637181011e+01 0 0 0
1433 58 2 0.0000000000000000e+00 -4.1510225430000418e+01 -1.3240751321525795e+02 -4.8710392475264662e+01 0 0 0
1432 58 1 0.0000000000000000e+00 -3.9992997219430642e+01 -1.2521833491056201e+02 -5.5677744827357380e+01 0 0 0
4516 181 4 0.0000000000000000e+00 -1.2712315501813791e+02 -1.1495023146899746e+02 -5.4886645549911805e+01 0 0 0
4515 181 4 0.0000000000000000e+00 -1.1731784648677414e+02 -1.1523752059895685e+02 -5.3464198635922976e+01 0 0 0