LAMMPS data file via write_data, version 5 Jun 2019, timestep = 400000000

5000 atoms
4 atom types
5216 bonds
3 bond types
4600 angles
2 angle types

-5.0000000000000000e+02 5.0000000000000000e+02 xlo xhi
-5.0000000000000000e+02 5.0000000000000000e+02 ylo yhi
-5.0000000000000000e+02 5.0000000000000000e+02 zlo zhi

Masses

1 1000
2 1000
3 1000
4 1000

Pair Coeffs # lj/cut

1 0.18 10
2 0.18 10
3 0.18 10
4 0.18 10

Bond Coeffs # harmonic

1 3 10
2 3 10
3 1.8 11.22

Angle Coeffs # cosine

1 2
2 2

Atoms # full

3251 131 3 0.0000000000000000e+00 -4.6228878674155332e+01 -7.1594953651144934e+01 -2.4085758443085140e+02 0 0 0
978 40 2 0.0000000000000000e+00 -2.1799514423763451e+01 -7.2138661346016761e+01 -2.3950354725199765e+02 0 0 0
977 40 2 0.0000000000000000e+00 -2.9876876219492178e+01 -6.6334907328731035e+01 -2.4188807886322721e+02 0 0 0
1000 40 1 0.0000000000000000e+00 -7.1673311279609990e+01 -9.1428486785120043e+01 -2.3580479619930136e+02 0 0 0
999 40 2 0.0000000000000000e+00 -6.2196455948389463e+01 -8.9902439386027154e+01 -2.3343792114021062e+02 0 0 0
998 40 2 0.0000000000000000e+00 -5.5115752847185512e+01 -8.5040365431072473e+01 -2.2882366545134596e+02 0 0 0
997 40 2 0.0000000000000000e+00 -4.7827492188298628e+01 -9.1397927825349470e+01 -2.2550883566133621e+02 0 0 0
996 40 2 0.0000000000000000e+00 -3.8925190025679022e+01 -9.5788869878247652e+01 -2.2395464865509254e+02 0 0 0
3255 131 4 0.0000000000000000e+00 -1.7080241635015707e+01 -8.6521576769364785e+01 -2.2596439887265791e+02 0 0 0
3252 131 4 0.0000000000000000e+00 -3.8501804198051914e+01 -7.6619302712439378e+01 -2.3669053076922592e+02 0 0 0
3253 131 4 0.0000000000000000e+00 -3.4579779601515639e+01 -7.8182597088434960e+01 -2.2732783572047245e+02 0 0 0
979 40 2 0.0000000000000000e+00 -1.6598492141688535e+01 -7.8442139109008863e+01 -2.3395120581302427e+02 0 0 0
980 40 2 0.0000000000000000e+00 -1.6175223606140154e+01 -7.5480687180165091e+01 -2.2426586955220893e+02 0 0 0
3254 131 4 0.0000000000000000e+00 -2.6598653870869750e+01 -8.2924877465289754e+01 -2.2427237742508839e+02 0 0 0
976 40 1 0.0000000000000000e+00 -3.7551838801022441e+01 -6.6963340889577353e+01 -2.3487504747332449e+02 0 0 0
3517 141 4 0.0000000000000000e+00 -7.6458288977978972e+00 -5.1613153730919365e+01 -2.2754036283118521e+02 0 0 0
4468 179 4 0.0000000000000000e+00 1.4369333803614301e+01 -5.1773186910318074e+01 -2.3132500002727940e+02 0 0 0
4467 179 4 0.0000000000000000e+00 2.4727883732548907e+01 -5.0361455274859217e+01 -2.3204635084138857e+02 0 0 0
3518 141 4 0.0000000000000000e+00 -9.0829279676370742e+00 -4.2659776069122920e+01 -2.3191270179632676e+02 0 0 0
3519 141 3 0.0000000000000000e+00 -7.2020280786736244e+00 -3.3762148260703341e+01 -2.2731107930729087e+02 0 0 0
992 40 2 0.0000000000000000e+00 -6.6220853131646846e+00 -1.0613500728827697e+02 -2.1162949374832783e+02 0 0 0
995 40 2 0.0000000000000000e+00 -2.9179252326137561e+01 -9.4686934158937220e+01 -2.2324526742613597e+02 0 0 0
994 40 1 0.0000000000000000e+00 -2.0047830970548901e+01 -9.3619971415165509e+01 -2.1872999606708106e+02 0 0 0
3257 131 3 0.0000000000000000e+00 -2.0263431921011215e+01 -8.6805649246441433e+01 -2.1025629941529860e+02 0 0 0
993 40 2 0.0000000000000000e+00 -1.1447479257933500e+01 -9.8410035019069852e+01 -2.1607235090863088e+02 0 0 0
3256 131 4 0.0000000000000000e+00 -1.2770061415330003e+01 -8.7843589142433245e+01 -2.1726427633293281e+02 0 0 0
981 40 2 0.0000000000000000e+00 -1.5926194926540477e+01 -7.8343545287050802e+01 -2.1449999461799703e+02 0 0 0
1850 74 1 0.0000000000000000e+00 1.1956875075057795e+01 -5.8751960708984967e+01 -2.1940555780539879e+02 0 0 0
3513 141 3 0.0000000000000000e+00 1.0675726102533657e+01 -6.7716495576390372e+01 -2.1295545117794899e+02 0 0 0
3514 141 4 0.0000000000000000e+00 2.9201559119337128e+00 -6.1485077563310377e+01 -2.1073068877027930e+02 0 0 0
3515 141 4 0.0000000000000000e+00 -2.8890677703866916e+00 -5.5690578116716964e+01 -2.1637316026528026e+02 0 0 0
3516 141 4 0.0000000000000000e+00 -1.2145368100658635e+01 -5.6081677970682115e+01 -2.1919684346846489e+02 0 0 0
4470 179 4 0.0000000000000000e+00 6.9279713168175157e+00 -4.4991199930461498e+01 -2.1522261688602040e+02 0 0 0
4469 179 3 0.0000000000000000e+00 1.2682642078496354e+01 -4.7208050388939299e+01 -2.2309774981989332e+02 0 0 0
1849 74 2 0.0000000000000000e+00 2.0509887722844105e+01 -5.7109397772596509e+01 -2.1415794624981015e+02 0 0 0
1843 74 2 0.0000000000000000e+00 -7.8928503722344470e+00 -3.3934819809454510e+01 -2.1140389580096797e+02 0 0 0
1844 74 1 0.0000000000000000e+00 -5.2444712058976350e-01 -3.6269008785475386e+01 -2.1819641342050505e+02 0 0 0
1845 74 2 0.0000000000000000e+00 9.5176099816073947e+00 -3.4457593455948555e+01 -2.1752696258536611e+02 0 0 0
1846 74 2 0.0000000000000000e+00 1.8411730649856935e+01 -3.6732880146412462e+01 -2.1230866945603583e+02 0 0 0
991 40 2 0.0000000000000000e+00 -6.1930422163949688e+00 -1.0903340784220201e+02 -2.0180646124776800e+02 0 0 0
3258 131 4 0.0000000000000000e+00 -2.8923818786718787e+01 -8.3614952904927875e+01 -2.0668602216605780e+02 0 0 0
3259 131 4 0.0000000000000000e+00 -2.8546514410679219e+01 -8.3203402103751046e+01 -1.9664909834045011e+02 0 0 0
3651 147 3 0.0000000000000000e+00 -1.7095250951974517e+01 -8.2965024627062448e+01 -2.0028050209117637e+02 0 0 0
982 40 1 0.0000000000000000e+00 -1.4794583530953810e+01 -7.3278351321543482e+01 -2.0587342824349471e+02 0 0 0
3512 141 4 0.0000000000000000e+00 1.8087961878557838e+01 -7.2844592061592223e+01 -2.0758191939473156e+02 0 0 0
983 40 2 0.0000000000000000e+00 -9.3983635152182980e+00 -6.5919728372956811e+01 -2.0315498666355856e+02 0 0 0
984 40 2 0.0000000000000000e+00 -9.8214786528381415e-01 -6.1948423512773232e+01 -1.9868358533907787e+02 0 0 0
4471 179 4 0.0000000000000000e+00 1.6129205245927878e+00 -4.8031074953246822e+01 -2.0693952119114678e+02 0 0 0
4472 179 4 0.0000000000000000e+00 1.8501640721412573e+00 -4.5590074435344548e+01 -1.9716675981782925e+02 0 0 0
1848 74 2 0.0000000000000000e+00 2.4722966782053327e+01 -5.2301257299456850e+01 -2.0611574593839353e+02 0 0 0
1842 74 2 0.0000000000000000e+00 -8.7677482631001293e+00 -3.5190775186495799e+01 -2.0146804418720546e+02 0 0 0
1847 74 2 0.0000000000000000e+00 2.2322610307569569e+01 -4.2658342274686497e+01 -2.0469644685443697e+02 0 0 0
990 40 2 0.0000000000000000e+00 -1.0961824884219773e+01 -1.0784279965857093e+02 -1.9326099576156022e+02 0 0 0
989 40 2 0.0000000000000000e+00 -1.0791619498831283e+01 -1.0237994858744895e+02 -1.8469782103297018e+02 0 0 0
3260 131 4 0.0000000000000000e+00 -2.9035049716752845e+01 -8.5415540276018845e+01 -1.8706665275682147e+02 0 0 0
987 40 2 0.0000000000000000e+00 -7.8095946299549435e-01 -8.7495867235784544e+01 -1.8413049134639013e+02 0 0 0
3652 147 4 0.0000000000000000e+00 -1.9113111999637237e+01 -7.5485293422240673e+01 -1.9384602177743179e+02 0 0 0
3653 147 4 0.0000000000000000e+00 -1.6102684265629378e+01 -7.2401415372400692e+01 -1.8520967016458386e+02 0 0 0
986 40 2 0.0000000000000000e+00 -3.6813091037744359e+00 -7.8108947362550950e+01 -1.8676935176367189e+02 0 0 0
985 40 2 0.0000000000000000e+00 -4.3392008682442629e-01 -7.1551280153384923e+01 -1.9393468843721692e+02 0 0 0
3654 147 4 0.0000000000000000e+00 -9.2997906338638234e+00 -6.4861640348202059e+01 -1.8518565335181822e+02 0 0 0
3655 147 4 0.0000000000000000e+00 -9.0799355187568764e+00 -5.5641838956198946e+01 -1.8321852227873777e+02 0 0 0
4460 179 4 0.0000000000000000e+00 2.1682615705623732e+01 -4.4804180950363879e+01 -1.8496775184765269e+02 0 0 0
3548 142 4 0.0000000000000000e+00 -5.5677544496995921e+01 -3.4488174922469696e+01 -1.8784229034976636e+02 0 0 0
3547 142 4 0.0000000000000000e+00 -4.7200179866215251e+01 -3.7555445224572075e+01 -1.8323541495581276e+02 0 0 0
2234 90 2 0.0000000000000000e+00 -2.0836479393900326e+01 -3.4182260130853635e+01 -1.8424860099029809e+02 0 0 0
1841 74 2 0.0000000000000000e+00 -6.9069183670402889e+00 -3.6546479076930659e+01 -1.9170869981008801e+02 0 0 0
1840 74 2 0.0000000000000000e+00 -8.2013650076405487e+00 -4.2523835136226104e+01 -1.8348383477503472e+02 0 0 0
4474 179 4 0.0000000000000000e+00 -2.2467274590559012e+00 -3.1426209576816039e+01 -1.8587124255335260e+02 0 0 0
4473 179 4 0.0000000000000000e+00 1.3354330530566463e+00 -4.0413096777321812e+01 -1.8887253387337333e+02 0 0 0
4459 179 4 0.0000000000000000e+00 1.5483126401259970e+01 -3.7756304736867435e+01 -1.8742487462650541e+02 0 0 0
1827 74 2 0.0000000000000000e+00 -3.5294939048931923e+01 -1.1498743352009016e+02 -1.7614338341958151e+02 0 0 0
1828 74 2 0.0000000000000000e+00 -2.6095478540315888e+01 -1.1756223778665239e+02 -1.8013384006340578e+02 0 0 0
1829 74 2 0.0000000000000000e+00 -1.8756059602880217e+01 -1.2361560841460677e+02 -1.7731990421761296e+02 0 0 0
1830 74 2 0.0000000000000000e+00 -1.2251997528928021e+01 -1.1755413273146213e+02 -1.7211551337799443e+02 0 0 0
1826 74 1 0.0000000000000000e+00 -3.7214996820679012e+01 -1.0494924109481371e+02 -1.7552533880842950e+02 0 0 0
3262 131 4 0.0000000000000000e+00 -3.1131813919824406e+01 -9.7820469048434774e+01 -1.7257817547326144e+02 0 0 0
3261 131 4 0.0000000000000000e+00 -2.6115231808225058e+01 -9.3158107723114497e+01 -1.8043274188143135e+02 0 0 0
988 40 1 0.0000000000000000e+00 -3.0161077293444318e+00 -9.6401431970276477e+01 -1.8165906700699924e+02 0 0 0
3656 147 4 0.0000000000000000e+00 -8.5115021249980369e+00 -5.1843570924844919e+01 -1.7367078481617216e+02 0 0 0
1839 74 2 0.0000000000000000e+00 -6.3333348344867801e-01 -4.8423536830066446e+01 -1.8029213707049672e+02 0 0 0
1838 74 1 0.0000000000000000e+00 2.6350429096947949e+00 -5.3493565504990393e+01 -1.7203217157367999e+02 0 0 0
3504 141 4 0.0000000000000000e+00 1.8710006487504621e+01 -5.5792806138240941e+01 -1.7310625906480524e+02 0 0 0
3546 142 4 0.0000000000000000e+00 -3.8498895052917732e+01 -3.5360232514967372e+01 -1.7812358552340396e+02 0 0 0
3545 142 4 0.0000000000000000e+00 -3.0428730892247255e+01 -3.2650938427393541e+01 -1.7269497024857108e+02 0 0 0
256 11 2 0.0000000000000000e+00 1.6736403218568789e+01 -4.0117144354430799e+01 -1.7070751895559584e+02 0 0 0
255 11 2 0.0000000000000000e+00 1.9916889778956879e+01 -3.4094986267980119e+01 -1.7825102935033254e+02 0 0 0
3264 131 4 0.0000000000000000e+00 -4.1591844471779780e+01 -1.0728102367143761e+02 -1.6029002941684092e+02 0 0 0
3263 131 3 0.0000000000000000e+00 -3.8302717133972330e+01 -9.9654404030913369e+01 -1.6555880930497065e+02 0 0 0
4897 196 4 0.0000000000000000e+00 -2.4333063207072350e+01 -9.9283820143711793e+01 -1.5780838386651854e+02 0 0 0
1831 74 2 0.0000000000000000e+00 -8.3709528239150668e+00 -1.1164145011082584e+02 -1.6378272314966563e+02 0 0 0
1832 74 1 0.0000000000000000e+00 -9.9256118028449887e+00 -1.0159372789003602e+02 -1.6223081664802530e+02 0 0 0
4896 196 4 0.0000000000000000e+00 -2.4983694188869933e+01 -8.9495530685056977e+01 -1.5615726919794056e+02 0 0 0
1833 74 2 0.0000000000000000e+00 -1.0827342027915321e+01 -9.2298834523836064e+01 -1.5891846377764631e+02 0 0 0
4894 196 3 0.0000000000000000e+00 -3.2088870696510583e+01 -7.6228803514311409e+01 -1.6749896036863026e+02 0 0 0
4895 196 4 0.0000000000000000e+00 -2.5873744181035587e+01 -8.0988840969871546e+01 -1.6064317418737423e+02 0 0 0
1834 74 2 0.0000000000000000e+00 -1.2046051824478621e+01 -8.2243685672121003e+01 -1.5797539896185202e+02 0 0 0
1835 74 2 0.0000000000000000e+00 -1.3223242597457846e+01 -7.2903986604776449e+01 -1.6049111360432278e+02 0 0 0
610 25 2 0.0000000000000000e+00 2.4617690970549752e+01 -7.1455679759377787e+01 -1.6447545527978551e+02 0 0 0
4893 196 4 0.0000000000000000e+00 -3.4663153967935443e+01 -6.9466348008664539e+01 -1.6033598643246989e+02 0 0 0
4892 196 4 0.0000000000000000e+00 -2.7135967237227625e+01 -6.5238274202515740e+01 -1.5541750483889240e+02 0 0 0
1836 74 2 0.0000000000000000e+00 -5.6895150634151106e+00 -6.6582800726507685e+01 -1.6167152901976732e+02 0 0 0
1837 74 2 0.0000000000000000e+00 1.4133593424651221e+00 -6.0305026236607418e+01 -1.6415556690766587e+02 0 0 0
608 25 2 0.0000000000000000e+00 7.3069054514097322e+00 -6.4244703134511269e+01 -1.5618994174483666e+02 0 0 0
609 25 2 0.0000000000000000e+00 1.6242625586003317e+01 -6.8840468849223015e+01 -1.5870159770774592e+02 0 0 0
259 11 2 0.0000000000000000e+00 2.5766782969185982e+01 -6.3756196918689270e+01 -1.5757870086698804e+02 0 0 0
3657 147 3 0.0000000000000000e+00 -3.6570352852480945e+00 -4.6800408130545733e+01 -1.6682476130764229e+02 0 0 0
257 11 1 0.0000000000000000e+00 1.7926047060666310e+01 -4.7969027809500801e+01 -1.6457515526342820e+02 0 0 0
258 11 2 0.0000000000000000e+00 1.9178862561766596e+01 -5.6838911866319187e+01 -1.6087485977410481e+02 0 0 0
4882 196 3 0.0000000000000000e+00 2.5777597180917709e+01 -4.4644036144163870e+01 -1.5726339290506345e+02 0 0 0
3658 147 4 0.0000000000000000e+00 -6.5883782989713087e+00 -4.1335513956465341e+01 -1.5924922695979453e+02 0 0 0
3265 131 4 0.0000000000000000e+00 -4.4220314328500621e+01 -1.0100930248804409e+02 -1.5279640959370366e+02 0 0 0
4898 196 4 0.0000000000000000e+00 -1.6577444933055418e+01 -1.0000758054638690e+02 -1.5188095094400569e+02 0 0 0
4899 196 4 0.0000000000000000e+00 -6.4505284594920598e+00 -1.0035705169657949e+02 -1.4915104589985157e+02 0 0 0
4900 196 3 0.0000000000000000e+00 8.4754797870968582e-02 -1.0521927356167093e+02 -1.4327497799167352e+02 0 0 0
457 19 1 0.0000000000000000e+00 9.9569322832879461e+00 -1.0115965230117334e+02 -1.4253231712331859e+02 0 0 0
3266 131 4 0.0000000000000000e+00 -4.6337882518970467e+01 -9.8059492697039516e+01 -1.4329719983685342e+02 0 0 0
458 19 2 0.0000000000000000e+00 2.3628959004508721e+00 -9.5077575773988713e+01 -1.4129929613381231e+02 0 0 0
461 19 2 0.0000000000000000e+00 -1.2680875206210755e+01 -7.6897943253847814e+01 -1.4153970890207816e+02 0 0 0
3527 142 4 0.0000000000000000e+00 -1.2495190551421415e+02 -6.3563839465034178e+01 -1.4538498701394067e+02 0 0 0
464 19 2 0.0000000000000000e+00 -3.0074909675572460e+01 -5.7561770151627634e+01 -1.4202095370040999e+02 0 0 0
462 19 2 0.0000000000000000e+00 -1.8275257544740839e+01 -6.8299815031928588e+01 -1.4254670125298566e+02 0 0 0
4891 196 4 0.0000000000000000e+00 -2.1302491905863899e+01 -5.7749796343342481e+01 -1.5337091288537411e+02 0 0 0
3661 147 4 0.0000000000000000e+00 -6.4774935363876214e+00 -6.2395651683206466e+01 -1.4637372062842101e+02 0 0 0
3662 147 4 0.0000000000000000e+00 -8.2399812937721195e-01 -7.0568352172639948e+01 -1.4860155339597480e+02 0 0 0
3663 147 3 0.0000000000000000e+00 8.4532059457757089e+00 -6.6488582224167487e+01 -1.4544243285102843e+02 0 0 0
3528 142 4 0.0000000000000000e+00 -1.2654703105697588e+02 -5.3878959411151996e+01 -1.4587314188185235e+02 0 0 0
3529 142 4 0.0000000000000000e+00 -1.1904259980922220e+02 -4.8117308505730101e+01 -1.4188192996996332e+02 0 0 0
3530 142 4 0.0000000000000000e+00 -1.0910866402164743e+02 -5.0014888548724066e+01 -1.4126339973429157e+02 0 0 0
3531 142 4 0.0000000000000000e+00 -9.9636565032410559e+01 -4.6993010177312513e+01 -1.4288025822967148e+02 0 0 0
466 19 2 0.0000000000000000e+00 -4.6268099427959058e+01 -4.6020713361085463e+01 -1.4298251833573161e+02 0 0 0
465 19 2 0.0000000000000000e+00 -3.9883949317663678e+01 -5.4726636394720956e+01 -1.4326247282631951e+02 0 0 0
4890 196 4 0.0000000000000000e+00 -1.8341453715586297e+01 -5.0284133854252865e+01 -1.4723653260011719e+02 0 0 0
3660 147 4 0.0000000000000000e+00 -9.1114662524517414e+00 -5.3048498128582544e+01 -1.4805102927749070e+02 0 0 0
3659 147 4 0.0000000000000000e+00 -1.1535456711470648e+01 -4.4403316625306203e+01 -1.5133514011945621e+02 0 0 0
607 25 1 0.0000000000000000e+00 3.2768139491818769e+00 -5.7132227101874875e+01 -1.5081939766064414e+02 0 0 0
606 25 2 0.0000000000000000e+00 1.0222244178687279e+00 -4.7521871561838864e+01 -1.5229687766799643e+02 0 0 0
4884 196 4 0.0000000000000000e+00 1.5491698021366329e+01 -4.4694860258660810e+01 -1.4166592213242967e+02 0 0 0
4883 196 4 0.0000000000000000e+00 1.7665659569636613e+01 -4.3581100844781815e+01 -1.5141921974798311e+02 0 0 0
3533 142 4 0.0000000000000000e+00 -8.4782455619284761e+01 -3.4248716392248610e+01 -1.4084505715467824e+02 0 0 0
474 19 2 0.0000000000000000e+00 -7.0314973247131519e+01 -3.6828091718382751e+01 -1.4061693367619944e+02 0 0 0
468 19 2 0.0000000000000000e+00 -5.7257498274754624e+01 -3.2555859625856577e+01 -1.5180156727285518e+02 0 0 0
467 19 2 0.0000000000000000e+00 -5.3047621779284711e+01 -4.0453519022110292e+01 -1.4717789101212941e+02 0 0 0
4889 196 4 0.0000000000000000e+00 -1.9614215935888801e+01 -4.0298536438284181e+01 -1.4697188656366643e+02 0 0 0
4888 196 3 0.0000000000000000e+00 -1.3526562416857539e+01 -3.2303226008926288e+01 -1.4632394724454414e+02 0 0 0
4887 196 4 0.0000000000000000e+00 -5.1183576469044709e+00 -2.9905482250949049e+01 -1.4141429744465012e+02 0 0 0
605 25 2 0.0000000000000000e+00 3.1358445516247806e+00 -3.7784560146458453e+01 -1.5021482079402588e+02 0 0 0
2020 81 2 0.0000000000000000e+00 7.4175869325359232e+00 -1.6244094235626494e+02 -1.2752037922790618e+02 0 0 0
2021 81 2 0.0000000000000000e+00 1.0683186017036384e+01 -1.5872232704791512e+02 -1.3685857380021321e+02 0 0 0
2022 81 2 0.0000000000000000e+00 1.9847228584569656e+01 -1.6179669073017405e+02 -1.3769827644372413e+02 0 0 0
2017 81 2 0.0000000000000000e+00 2.0799539513549874e+01 -1.5180587817808313e+02 -1.2737987646892171e+02 0 0 0
4271 171 4 0.0000000000000000e+00 2.5240843535177444e+01 -1.2858666353431605e+02 -1.3085829033465100e+02 0 0 0
4270 171 4 0.0000000000000000e+00 2.2183779679308898e+01 -1.2021544443533227e+02 -1.3504739504991755e+02 0 0 0
456 19 2 0.0000000000000000e+00 1.9223171978743004e+01 -1.0144945872031911e+02 -1.3871998466923290e+02 0 0 0
455 19 2 0.0000000000000000e+00 2.4451642089165933e+01 -1.0363212530628240e+02 -1.3040555410565310e+02 0 0 0
3267 131 4 0.0000000000000000e+00 -4.0451629499742353e+01 -9.4433926387099405e+01 -1.3635993769352976e+02 0 0 0
3268 131 4 0.0000000000000000e+00 -3.5411215644890241e+01 -9.1257569179199891e+01 -1.2860905049751557e+02 0 0 0
3526 142 3 0.0000000000000000e+00 -1.2718695616296073e+02 -7.2480187232136771e+01 -1.4055896257273909e+02 0 0 0
3273 131 4 0.0000000000000000e+00 -2.3993038439817422e+01 -7.3188828728572503e+01 -1.2784613357374306e+02 0 0 0
460 19 2 0.0000000000000000e+00 -2.6701510196031979e+00 -7.7168191008204161e+01 -1.4054648419426633e+02 0 0 0
459 19 2 0.0000000000000000e+00 4.0228584833180481e+00 -8.4482735619413134e+01 -1.4009534372678831e+02 0 0 0
1887 76 2 0.0000000000000000e+00 1.2721077636757494e+00 -7.6816955450224512e+01 -1.2831472185489227e+02 0 0 0
1886 76 2 0.0000000000000000e+00 8.8258402384604668e+00 -7.6035277653330425e+01 -1.3504260712849654e+02 0 0 0
1885 76 2 0.0000000000000000e+00 1.7726580913518994e+01 -7.8946097495559329e+01 -1.3276691355896793e+02 0 0 0
1884 76 2 0.0000000000000000e+00 2.3582155347062365e+01 -7.3247218909357343e+01 -1.3881886745779587e+02 0 0 0
463 19 1 0.0000000000000000e+00 -2.0565373978082736e+01 -5.8635925713006642e+01 -1.4003549166761832e+02 0 0 0
3274 131 4 0.0000000000000000e+00 -2.6497646549112481e+01 -6.4032374196191512e+01 -1.3069270627230702e+02 0 0 0
1888 76 1 0.0000000000000000e+00 -3.6465743978066545e+00 -6.8184221363715309e+01 -1.2738589844933816e+02 0 0 0
3664 147 4 0.0000000000000000e+00 1.4858690107814445e+01 -6.4669264319416286e+01 -1.3798327151329093e+02 0 0 0
3665 147 4 0.0000000000000000e+00 1.5730555227087761e+01 -6.2335865037296898e+01 -1.2826099314162272e+02 0 0 0
475 19 1 0.0000000000000000e+00 -7.0612408510505190e+01 -4.6091467190336076e+01 -1.3622812346714545e+02 0 0 0
3275 131 3 0.0000000000000000e+00 -2.8679648849345007e+01 -5.4042919960584619e+01 -1.3309090457740646e+02 0 0 0
675 27 1 0.0000000000000000e+00 -1.0211296833165723e+02 -3.9301415571022510e+01 -1.3281226371679986e+02 0 0 0
3532 142 3 0.0000000000000000e+00 -9.2855576281850830e+01 -4.0197717541187814e+01 -1.3955808821564156e+02 0 0 0
4885 196 4 0.0000000000000000e+00 9.7479614533035921e+00 -4.0619480522159662e+01 -1.3430544696957196e+02 0 0 0
4886 196 4 0.0000000000000000e+00 2.4430578895123700e+00 -3.3744129346674811e+01 -1.3603084613304509e+02 0 0 0
2018 81 2 0.0000000000000000e+00 1.4824157830412087e+01 -1.5674318304324277e+02 -1.2150945704071509e+02 0 0 0
2019 81 1 0.0000000000000000e+00 5.0244361039305421e+00 -1.5408805572382610e+02 -1.2165565230763578e+02 0 0 0
2655 107 4 0.0000000000000000e+00 2.0292219685819717e+01 -1.4251071424759391e+02 -1.1753966557388286e+02 0 0 0
2654 107 4 0.0000000000000000e+00 2.4703972265388263e+01 -1.5174441404308971e+02 -1.1688820102678810e+02 0 0 0
2656 107 4 0.0000000000000000e+00 1.5300844825746408e+01 -1.3388320210940981e+02 -1.1960050593266064e+02 0 0 0
1401 57 1 0.0000000000000000e+00 5.6447627873049342e+00 -1.1670204807481329e+02 -1.1465828064864077e+02 0 0 0
2657 107 3 0.0000000000000000e+00 1.8303698041861676e+01 -1.2487222459154074e+02 -1.2319954989886597e+02 0 0 0
2658 107 4 0.0000000000000000e+00 2.2076883943519437e+01 -1.1765506894320878e+02 -1.1786728581630072e+02 0 0 0
1419 57 1 0.0000000000000000e+00 2.4869618022548099e+01 -1.2641384387295605e+02 -1.1374998278308458e+02 0 0 0
1211 49 2 0.0000000000000000e+00 -1.9173631391202736e+01 -1.0749360931794786e+02 -1.1810379868426837e+02 0 0 0
454 19 2 0.0000000000000000e+00 2.1926224618143991e+01 -1.0261165039776269e+02 -1.2028245262608125e+02 0 0 0
3269 131 3 0.0000000000000000e+00 -3.6294789269999882e+01 -9.0396878046110558e+01 -1.1841841869698595e+02 0 0 0
1213 49 1 0.0000000000000000e+00 -2.5005533538073010e+01 -9.3133721016078752e+01 -1.1758066169638658e+02 0 0 0
1212 49 2 0.0000000000000000e+00 -1.6597164460146239e+01 -9.7732279779824708e+01 -1.2082260729632391e+02 0 0 0
1207 49 1 0.0000000000000000e+00 -1.1009773735859412e+01 -8.9248551934475230e+01 -1.1665767047000031e+02 0 0 0
1773 71 2 0.0000000000000000e+00 1.9170754023422590e-01 -9.6225246103778261e+01 -1.1382043216206910e+02 0 0 0
1774 71 2 0.0000000000000000e+00 2.5748440113928788e+00 -8.8549576421882904e+01 -1.1943298508373377e+02 0 0 0
1775 71 1 0.0000000000000000e+00 1.1174423159308802e+01 -9.1461214435714680e+01 -1.2476000523449051e+02 0 0 0
3272 131 4 0.0000000000000000e+00 -1.9663343549030358e+01 -7.6986399042512943e+01 -1.1981866118758094e+02 0 0 0
3271 131 4 0.0000000000000000e+00 -2.6111197346633379e+01 -8.2319008574587230e+01 -1.1357829009444805e+02 0 0 0
1206 49 2 0.0000000000000000e+00 -6.2338165450428313e+00 -8.0932895013844302e+01 -1.1897257873045486e+02 0 0 0
1205 49 2 0.0000000000000000e+00 3.6634735767465689e+00 -7.8679287967551716e+01 -1.1877670264026746e+02 0 0 0
1203 49 2 0.0000000000000000e+00 2.2753981323950470e+01 -7.1911707205920010e+01 -1.1768584725874511e+02 0 0 0
1204 49 2 0.0000000000000000e+00 1.3673370270027545e+01 -7.6222798221321696e+01 -1.2011072847957843e+02 0 0 0
1889 76 2 0.0000000000000000e+00 2.1414836435915654e+00 -6.1705252534039040e+01 -1.2155289794857505e+02 0 0 0
3666 147 4 0.0000000000000000e+00 1.4088927830261541e+01 -5.7905212855911365e+01 -1.1965748781134150e+02 0 0 0
673 27 2 0.0000000000000000e+00 -1.0959776841552225e+02 -5.2875134089679165e+01 -1.1997137391312150e+02 0 0 0
674 27 2 0.0000000000000000e+00 -1.0520389578242471e+02 -4.5266417163417493e+01 -1.2610054348309755e+02 0 0 0
4865 195 4 0.0000000000000000e+00 -8.3250488416392443e+01 -4.9774135562333647e+01 -1.2014956975789519e+02 0 0 0
4864 195 4 0.0000000000000000e+00 -9.0787317546654407e+01 -4.4165059640970256e+01 -1.1694989024874367e+02 0 0 0
4866 195 4 0.0000000000000000e+00 -7.5606439175820228e+01 -5.2376782876577714e+01 -1.1488055244049717e+02 0 0 0
4863 195 3 0.0000000000000000e+00 -9.8396392536911492e+01 -3.7923585649436248e+01 -1.1510458237330805e+02 0 0 0
747 30 2 0.0000000000000000e+00 -8.4642642809910413e+01 -3.9595401366648964e+01 -1.2487569216262207e+02 0 0 0
748 30 2 0.0000000000000000e+00 -8.4820473955631343e+01 -3.0700367856901583e+01 -1.2098633877815986e+02 0 0 0
745 30 2 0.0000000000000000e+00 -6.8962824340637866e+01 -4.0654465533721030e+01 -1.1422459856467643e+02 0 0 0
746 30 2 0.0000000000000000e+00 -7.5307712908937035e+01 -4.3380008548924188e+01 -1.2286048112094322e+02 0 0 0
1224 49 2 0.0000000000000000e+00 -3.8696784701361587e+01 -1.6502784903624783e+02 -9.9741492843879058e+01 0 0 0
1225 49 1 0.0000000000000000e+00 -3.0830166369565944e+01 -1.6531441524882592e+02 -1.0640896923021403e+02 0 0 0
3011 121 4 0.0000000000000000e+00 -8.3239598997347866e+00 -1.5613182680090173e+02 -1.0129257084234860e+02 0 0 0
3008 121 4 0.0000000000000000e+00 -2.7436921489959239e+01 -1.5055320722768690e+02 -9.9422519986094798e+01 0 0 0
3009 121 4 0.0000000000000000e+00 -2.0148274225732717e+01 -1.4300554011875221e+02 -1.0070845619798416e+02 0 0 0
3010 121 4 0.0000000000000000e+00 -1.7077612526517512e+01 -1.5206133167756875e+02 -1.0249049140626032e+02 0 0 0
3012 121 4 0.0000000000000000e+00 -2.7351105084266041e+00 -1.5366678341873606e+02 -1.0912407111608863e+02 0 0 0
3013 121 3 0.0000000000000000e+00 6.3287239700133746e+00 -1.5061361950506003e+02 -1.1140455936837634e+02 0 0 0
3014 121 4 0.0000000000000000e+00 1.5039754827069613e+01 -1.4568801348247592e+02 -1.0972184468065758e+02 0 0 0
3015 121 4 0.0000000000000000e+00 2.3692420980240399e+01 -1.4153011396800403e+02 -1.0730291802219496e+02 0 0 0
1417 57 2 0.0000000000000000e+00 1.1615729564616355e+01 -1.2845505560241210e+02 -1.0199628730909541e+02 0 0 0
1418 57 2 0.0000000000000000e+00 1.5792562308141418e+01 -1.2929695552602490e+02 -1.1090099807165736e+02 0 0 0
3016 121 4 0.0000000000000000e+00 2.5642767335738693e+01 -1.3349724447225526e+02 -1.0115887688703093e+02 0 0 0
1771 71 2 0.0000000000000000e+00 -5.5827304901088395e+00 -1.1279495852238416e+02 -1.0465057203630360e+02 0 0 0
1215 49 2 0.0000000000000000e+00 -2.9779262129189878e+01 -1.0675204564526616e+02 -1.0281524503682644e+02 0 0 0
1210 49 2 0.0000000000000000e+00 -2.0184272078506933e+01 -1.0304516006180802e+02 -1.0944585075821591e+02 0 0 0
1772 71 2 0.0000000000000000e+00 -4.7726955337411967e+00 -1.0456739808123962e+02 -1.1028895071150814e+02 0 0 0
1402 57 2 0.0000000000000000e+00 4.9084311058552430e+00 -1.0753050589035584e+02 -1.0943049783455045e+02 0 0 0
1403 57 2 0.0000000000000000e+00 5.5516807083875486e-01 -1.0115727691530597e+02 -1.0214148654895104e+02 0 0 0
452 19 2 0.0000000000000000e+00 1.2750918613667185e+01 -1.1128084097063784e+02 -1.0559852179906147e+02 0 0 0
453 19 2 0.0000000000000000e+00 1.7072904160131767e+01 -1.0557359816075079e+02 -1.1236599228612810e+02 0 0 0
705 29 2 0.0000000000000000e+00 -1.5436919717701252e+02 -9.4519988814908018e+01 -1.0235884450670950e+02 0 0 0
704 29 2 0.0000000000000000e+00 -1.6129679285045833e+02 -9.3560939088333569e+01 -1.0920896884628019e+02 0 0 0
3270 131 4 0.0000000000000000e+00 -3.3281354410602603e+01 -8.7596260020547035e+01 -1.0889194109324995e+02 0 0 0
1214 49 2 0.0000000000000000e+00 -2.9320173244161669e+01 -9.8318263623951410e+01 -1.0883935206099939e+02 0 0 0
1209 49 2 0.0000000000000000e+00 -1.5823253386734994e+01 -9.8475959496720336e+01 -1.0189182135879734e+02 0 0 0
1208 49 2 0.0000000000000000e+00 -1.1272654946021916e+01 -9.1194143589396759e+01 -1.0719542297971978e+02 0 0 0
702 29 2 0.0000000000000000e+00 -1.6933383344948675e+02 -7.5920318705273559e+01 -1.0770163272008396e+02 0 0 0
703 29 2 0.0000000000000000e+00 -1.6567209773000084e+02 -8.4585248643952070e+01 -1.0634705497577718e+02 0 0 0
1893 76 2 0.0000000000000000e+00 2.2428003997900475e+01 -7.8006663147450126e+01 -1.0032985632304451e+02 0 0 0
1892 76 2 0.0000000000000000e+00 1.4936441567538957e+01 -7.1315298491947004e+01 -1.0303277659354728e+02 0 0 0
701 29 1 0.0000000000000000e+00 -1.7381999228750502e+02 -6.8718083226531562e+01 -1.0198545682297060e+02 0 0 0
2896 116 4 0.0000000000000000e+00 -1.2345970878139468e+02 -6.2315313325491623e+01 -1.0179432806443064e+02 0 0 0
672 27 2 0.0000000000000000e+00 -1.1076637301392138e+02 -5.9768758183086803e+01 -1.1207844435023296e+02 0 0 0
671 27 2 0.0000000000000000e+00 -1.0770379572063206e+02 -6.9261692103048716e+01 -1.0932347847182223e+02 0 0 0
1890 76 2 0.0000000000000000e+00 4.7175684090826877e+00 -6.3487214352460782e+01 -1.1166749664974846e+02 0 0 0
1891 76 2 0.0000000000000000e+00 6.0019239279293508e+00 -6.7508886421934548e+01 -1.0248149083498575e+02 0 0 0
2897 116 4 0.0000000000000000e+00 -1.2108514422434259e+02 -5.3968447296772062e+01 -1.0658817483590587e+02 0 0 0
4861 195 4 0.0000000000000000e+00 -1.0242628237540460e+02 -5.1457396041207531e+01 -1.0736532013578372e+02 0 0 0
4860 195 4 0.0000000000000000e+00 -9.5124522691174121e+01 -5.5255529648369851e+01 -1.0181291390482509e+02 0 0 0
4859 195 4 0.0000000000000000e+00 -8.6039233602152365e+01 -5.0960108026409813e+01 -1.0356631223837142e+02 0 0 0
1745 70 2 0.0000000000000000e+00 -9.4149005825303661e+01 -4.5554824117347842e+01 -9.9278403319246451e+01 0 0 0
4867 195 4 0.0000000000000000e+00 -7.0260523943877885e+01 -4.9720886760744193e+01 -1.0651343008188596e+02 0 0 0
4868 195 4 0.0000000000000000e+00 -6.9659904785414213e+01 -5.6867294174290187e+01 -9.9278833235470103e+01 0 0 0
3576 144 3 0.0000000000000000e+00 -1.6307687150116887e+01 -5.0869480197819236e+01 -1.0081476128875882e+02 0 0 0
3667 147 4 0.0000000000000000e+00 1.9042636693221120e+01 -5.6265213384057439e+01 -1.1137136331458616e+02 0 0 0
3668 147 4 0.0000000000000000e+00 1.6061280461621468e+01 -5.6744062761575734e+01 -1.0217262251723152e+02 0 0 0
4862 195 4 0.0000000000000000e+00 -1.0578733734354077e+02 -4.2217357530419825e+01 -1.0987235106866031e+02 0 0 0
1746 70 2 0.0000000000000000e+00 -1.0141202345866503e+02 -3.8151941123244406e+01 -9.9344123581286169e+01 0 0 0
750 30 1 0.0000000000000000e+00 -9.2607293233317151e+01 -3.3493280739826268e+01 -1.0684948919447748e+02 0 0 0
4857 195 3 0.0000000000000000e+00 -7.3149448211006273e+01 -3.7003174632217103e+01 -9.9615847849814031e+01 0 0 0
744 30 1 0.0000000000000000e+00 -6.4210223835830107e+01 -3.9821115146031467e+01 -1.0516083380836371e+02 0 0 0
743 30 2 0.0000000000000000e+00 -5.4499364561707218e+01 -4.1946462313953489e+01 -1.0475342506239646e+02 0 0 0
742 30 2 0.0000000000000000e+00 -4.5341040040854921e+01 -3.9844974001694936e+01 -1.0725909440389034e+02 0 0 0