LAMMPS data file via write_data, version 5 Jun 2019, timestep = 340000000

5000 atoms
4 atom types
5215 bonds
3 bond types
4600 angles
2 angle types

-5.0000000000000000e+02 5.0000000000000000e+02 xlo xhi
-5.0000000000000000e+02 5.0000000000000000e+02 ylo yhi
-5.0000000000000000e+02 5.0000000000000000e+02 zlo zhi

Masses

1 1000
2 1000
3 1000
4 1000

Pair Coeffs # lj/cut

1 0.18 10
2 0.18 10
3 0.18 10
4 0.18 10

Bond Coeffs # harmonic

1 3 10
2 3 10
3 1.8 11.22

Angle Coeffs # cosine

1 2
2 2

Atoms # full

4851 195 3 0.0000000000000000e+00 -1.2985295910745167e+01 -1.1976518753750506e+02 -2.4597674847807230e+02 0 0 0
2126 86 1 0.0000000000000000e+00 -9.5579521870216837e+01 -4.3111403238824344e+01 -2.4125940459883492e+02 0 0 0
3176 128 3 0.0000000000000000e+00 -9.1106337951168939e+01 -3.4718591493620373e+01 -2.4712696978291393e+02 0 0 0
2250 90 1 0.0000000000000000e+00 -1.5865992537152449e+01 -1.2421352425829909e+02 -2.3681652783286438e+02 0 0 0
2249 90 2 0.0000000000000000e+00 -9.2077377559255655e+00 -1.3035009975295461e+02 -2.3223599861727348e+02 0 0 0
4853 195 4 0.0000000000000000e+00 -2.8539132878683446e+01 -1.1222527213269692e+02 -2.3716376687579583e+02 0 0 0
4854 195 4 0.0000000000000000e+00 -3.1427153993009942e+01 -1.1414459043143488e+02 -2.2764625878005924e+02 0 0 0
4852 195 4 0.0000000000000000e+00 -1.9561744960805072e+01 -1.1490794067764749e+02 -2.3994736401469157e+02 0 0 0
3177 128 4 0.0000000000000000e+00 -9.1667835215241723e+01 -2.7825954837944717e+01 -2.4008405428906630e+02 0 0 0
2127 86 2 0.0000000000000000e+00 -9.3152612852801141e+01 -3.7724197368106154e+01 -2.3249804463920543e+02 0 0 0
2128 86 2 0.0000000000000000e+00 -8.9911445864327348e+01 -2.9396045251378595e+01 -2.2898843234102631e+02 0 0 0
3179 128 4 0.0000000000000000e+00 -9.1511236823689742e+01 -1.2789457512837043e+01 -2.2792112706556114e+02 0 0 0
3178 128 4 0.0000000000000000e+00 -9.4037190893807633e+01 -2.0032131537987151e+01 -2.3473811576921022e+02 0 0 0
2129 86 2 0.0000000000000000e+00 -8.3628553473315222e+01 -2.1233037516575163e+01 -2.2962910503580895e+02 0 0 0
2130 86 2 0.0000000000000000e+00 -8.1951747319160575e+01 -1.2503211280076556e+01 -2.3467777495486916e+02 0 0 0
3186 128 4 0.0000000000000000e+00 -9.9580884400418469e+01 1.5047814980285210e+00 -2.3591205026091262e+02 0 0 0
2131 86 2 0.0000000000000000e+00 -8.2689436054895310e+01 -2.5919259982871616e+00 -2.3542599348465470e+02 0 0 0
3023 121 4 0.0000000000000000e+00 -1.3416679648146564e+02 -2.0441801654115432e+02 -2.1337353335120187e+02 0 0 0
3022 121 4 0.0000000000000000e+00 -1.2841826799144727e+02 -1.9591738359393560e+02 -2.1315887381777060e+02 0 0 0
2248 90 2 0.0000000000000000e+00 -8.3241196578364356e+00 -1.2354488406216831e+02 -2.2458714470868796e+02 0 0 0
4855 195 4 0.0000000000000000e+00 -2.3313959228864015e+01 -1.1851840399456945e+02 -2.2325148789844334e+02 0 0 0
2247 90 2 0.0000000000000000e+00 -1.0859693994147818e+01 -1.1843178977013432e+02 -2.1661241257830147e+02 0 0 0
4856 195 4 0.0000000000000000e+00 -2.0484755921709404e+01 -1.1548379952304850e+02 -2.1408284702844196e+02 0 0 0
2246 90 2 0.0000000000000000e+00 -8.1596603702154393e+00 -1.0948163769362398e+02 -2.1352406603831804e+02 0 0 0
3251 131 3 0.0000000000000000e+00 -3.0182967125570084e+01 -3.3329543803181650e+01 -2.2014738596272076e+02 0 0 0
3180 128 4 0.0000000000000000e+00 -8.6383019843334267e+01 -5.4731596698228158e+00 -2.2252003150717684e+02 0 0 0
3181 128 4 0.0000000000000000e+00 -7.8141141213900170e+01 -9.7676284376167888e-01 -2.1961876674159654e+02 0 0 0
3025 121 3 0.0000000000000000e+00 -1.2851521725125468e+02 -2.1768516378870336e+02 -2.0331634177770334e+02 0 0 0
3024 121 4 0.0000000000000000e+00 -1.3024335612357336e+02 -2.0848139047989801e+02 -2.0545501358406861e+02 0 0 0
3021 121 4 0.0000000000000000e+00 -1.2490902842408498e+02 -1.8647317998257739e+02 -2.1280302613575086e+02 0 0 0
3020 121 4 0.0000000000000000e+00 -1.2297129526825141e+02 -1.7937190508593551e+02 -2.0580440667329174e+02 0 0 0
4857 195 3 0.0000000000000000e+00 -1.7929492327716002e+01 -1.1049488397080043e+02 -2.0571098766326514e+02 0 0 0
2243 90 2 0.0000000000000000e+00 -2.2866724776083341e+01 -9.8198891220114078e+01 -2.0053504412192206e+02 0 0 0
2244 90 1 0.0000000000000000e+00 -1.3038950351444782e+01 -1.0072403379424141e+02 -2.0241174989137386e+02 0 0 0
2245 90 2 0.0000000000000000e+00 -5.2332376177748632e+00 -1.0104514017258737e+02 -2.0891811354340572e+02 0 0 0
591 24 2 0.0000000000000000e+00 -6.7440032537261544e+01 -2.6572348646471358e+01 -2.0043062197536005e+02 0 0 0
3252 131 4 0.0000000000000000e+00 -3.4845130785584487e+01 -3.1179873290650171e+01 -2.1133852026029265e+02 0 0 0
3253 131 4 0.0000000000000000e+00 -3.3371814400089463e+01 -3.2215346185247064e+01 -2.0155586763577747e+02 0 0 0
590 24 2 0.0000000000000000e+00 -7.7204510676337364e+01 -2.2524258364664707e+01 -2.0274984145066662e+02 0 0 0
3019 121 3 0.0000000000000000e+00 -1.1652205914272611e+02 -1.7841220903541654e+02 -1.9760579176741157e+02 0 0 0
3018 121 4 0.0000000000000000e+00 -1.0651427392578373e+02 -1.7806084195549587e+02 -1.9519617552833745e+02 0 0 0
3017 121 4 0.0000000000000000e+00 -9.9840452654336886e+01 -1.7079503526884710e+02 -1.9357586433777990e+02 0 0 0
3016 121 4 0.0000000000000000e+00 -9.0833395706355333e+01 -1.6659587764054555e+02 -1.9026216089892600e+02 0 0 0
3015 121 4 0.0000000000000000e+00 -8.1618438191510748e+01 -1.6400298604362393e+02 -1.8756032793827103e+02 0 0 0
3014 121 4 0.0000000000000000e+00 -7.1925591964448031e+01 -1.6023166764664248e+02 -1.8736955879915277e+02 0 0 0
2175 87 1 0.0000000000000000e+00 -6.3875903726431076e+01 -1.5219737448234000e+02 -1.9766776257348008e+02 0 0 0
3013 121 3 0.0000000000000000e+00 -6.2150619944151060e+01 -1.5836293300284620e+02 -1.8954331342381201e+02 0 0 0
3012 121 4 0.0000000000000000e+00 -5.2560388884192946e+01 -1.5876881252655937e+02 -1.8872678863747606e+02 0 0 0
2174 87 2 0.0000000000000000e+00 -6.5203669372703530e+01 -1.4295275678742203e+02 -1.9318540551317543e+02 0 0 0
4858 195 4 0.0000000000000000e+00 -2.2467217897429794e+01 -1.0930103777605116e+02 -1.9649182458466112e+02 0 0 0
4859 195 4 0.0000000000000000e+00 -2.1233492057005854e+01 -1.0757539068845551e+02 -1.8694028178156788e+02 0 0 0
2242 90 2 0.0000000000000000e+00 -2.8877710418651443e+01 -9.0498863028157331e+01 -1.9767199610829255e+02 0 0 0
2241 90 2 0.0000000000000000e+00 -2.7968059612528972e+01 -8.6886766307181745e+01 -1.8816340246884661e+02 0 0 0
1841 74 2 0.0000000000000000e+00 -1.1808398260683070e+01 -9.0375449342567833e+01 -1.8604857754626019e+02 0 0 0
1832 74 1 0.0000000000000000e+00 3.8027415444163042e+00 -9.1510388963857110e+01 -1.8547519627368987e+02 0 0 0
3254 131 4 0.0000000000000000e+00 -3.6393735951305068e+01 -3.8614553591630461e+01 -1.9367429969154688e+02 0 0 0
586 24 2 0.0000000000000000e+00 -1.1086662268743403e+02 -2.8160585496550915e+01 -1.8639894936764122e+02 0 0 0
3576 144 3 0.0000000000000000e+00 -9.9018455016446524e+01 -3.3828587312905263e+01 -1.9568371887130166e+02 0 0 0
588 24 1 0.0000000000000000e+00 -9.4526713518716846e+01 -2.4276449107606691e+01 -1.9239688801971624e+02 0 0 0
3577 144 4 0.0000000000000000e+00 -1.0145871761858763e+02 -3.3099579347740786e+01 -1.8618623825703327e+02 0 0 0
592 24 2 0.0000000000000000e+00 -6.1394165950958310e+01 -2.9388924112437813e+01 -1.9297127536763327e+02 0 0 0
3163 127 3 0.0000000000000000e+00 1.3741412952602145e+01 -2.7555089478549895e+01 -1.8850638719161219e+02 0 0 0
587 24 2 0.0000000000000000e+00 -1.0385921963988243e+02 -2.2607802967567292e+01 -1.8941528262370781e+02 0 0 0
589 24 2 0.0000000000000000e+00 -8.6236081037306903e+01 -2.3007452707974366e+01 -1.9882962599000541e+02 0 0 0
3164 127 4 0.0000000000000000e+00 8.0281063170053830e+00 -1.9446969007233250e+01 -1.8814194145288113e+02 0 0 0
3165 127 4 0.0000000000000000e+00 7.1842866875499114e+00 -9.8232059897013464e+00 -1.8629278250499453e+02 0 0 0
2172 87 2 0.0000000000000000e+00 -6.3997003011401468e+01 -1.5021615029700925e+02 -1.7890586518892565e+02 0 0 0
3011 121 4 0.0000000000000000e+00 -5.0946611079944795e+01 -1.5079449438041857e+02 -1.8222544018904526e+02 0 0 0
3010 121 4 0.0000000000000000e+00 -4.0508121536906586e+01 -1.4965049323895153e+02 -1.8171191120755734e+02 0 0 0
2173 87 2 0.0000000000000000e+00 -6.3564792340244239e+01 -1.4183652343048124e+02 -1.8364185839125506e+02 0 0 0
1409 57 2 0.0000000000000000e+00 -5.1689116751154607e+01 -1.3491327810219414e+02 -1.8046451032403638e+02 0 0 0
1408 57 2 0.0000000000000000e+00 -4.7821115991108080e+01 -1.4270944858053437e+02 -1.7495539442325239e+02 0 0 0
3009 121 4 0.0000000000000000e+00 -3.8610726154006628e+01 -1.4425130131885271e+02 -1.7408332597348019e+02 0 0 0
4151 167 3 0.0000000000000000e+00 -1.0042720499847027e+01 -1.3672856279644364e+02 -1.8157803884807120e+02 0 0 0
4153 167 4 0.0000000000000000e+00 -1.9030259586288217e+01 -1.3333922544375881e+02 -1.7377081040940541e+02 0 0 0
1410 57 2 0.0000000000000000e+00 -5.8703703240879712e+01 -1.2781492401714912e+02 -1.8163939600394983e+02 0 0 0
1411 57 2 0.0000000000000000e+00 -5.3705765744335494e+01 -1.2142088348703174e+02 -1.7642016866422273e+02 0 0 0
4152 167 4 0.0000000000000000e+00 -1.9106151259635592e+01 -1.3259427337396053e+02 -1.8361619860301545e+02 0 0 0
4860 195 4 0.0000000000000000e+00 -1.3333286207416581e+01 -1.0583534898010029e+02 -1.8087838000940474e+02 0 0 0
1829 74 2 0.0000000000000000e+00 6.9490865207268460e+00 -1.1805928236244726e+02 -1.7437252414048751e+02 0 0 0
1830 74 2 0.0000000000000000e+00 8.4449528126730158e+00 -1.0962961868151916e+02 -1.7905080569844603e+02 0 0 0
1419 57 1 0.0000000000000000e+00 -7.8347118404975603e+01 -9.9243970912085828e+01 -1.7379831867882123e+02 0 0 0
4861 195 4 0.0000000000000000e+00 -1.0989550826725679e+01 -1.0049968693241044e+02 -1.7289979053040690e+02 0 0 0
1843 74 2 0.0000000000000000e+00 -1.7164545443830901e+00 -1.0550707237236217e+02 -1.7667338687298135e+02 0 0 0
1842 74 2 0.0000000000000000e+00 -6.7626743673574019e+00 -9.7384743853548784e+01 -1.8037567413806318e+02 0 0 0
1831 74 2 0.0000000000000000e+00 5.5460239573272858e+00 -1.0011195271564681e+02 -1.8171668418100194e+02 0 0 0
1420 57 2 0.0000000000000000e+00 -8.1128264171192669e+01 -9.1792806692844323e+01 -1.8050355525636812e+02 0 0 0
1421 57 2 0.0000000000000000e+00 -7.9879472312257960e+01 -8.2284902818022118e+01 -1.7754327096429392e+02 0 0 0
2240 90 2 0.0000000000000000e+00 -2.7058931637154668e+01 -8.3903929113000146e+01 -1.7889971047791818e+02 0 0 0
1840 74 2 0.0000000000000000e+00 -9.3666038071391995e+00 -8.1485077243788581e+01 -1.8304256128258842e+02 0 0 0
1833 74 2 0.0000000000000000e+00 2.5201252451584093e+00 -8.1984585282129984e+01 -1.8294654831868610e+02 0 0 0
1839 74 2 0.0000000000000000e+00 -1.1238731522600105e+01 -7.4465523318943539e+01 -1.7599237128168542e+02 0 0 0
1838 74 1 0.0000000000000000e+00 -1.2625439482968575e+01 -6.5088884454803406e+01 -1.7342844413192736e+02 0 0 0
1834 74 2 0.0000000000000000e+00 6.2035354154497568e+00 -7.4144364865304894e+01 -1.7760287874065676e+02 0 0 0
595 24 2 0.0000000000000000e+00 -5.5677002056334317e+01 -5.1571772108993400e+01 -1.7742166526379816e+02 0 0 0
4892 196 4 0.0000000000000000e+00 -3.2352197384570594e+01 -5.9706103171686280e+01 -1.7489883096183712e+02 0 0 0
1837 74 2 0.0000000000000000e+00 -1.2435364726470644e+01 -5.4627029377950755e+01 -1.7401570571046895e+02 0 0 0
1835 74 2 0.0000000000000000e+00 4.6881385202061923e+00 -6.4084605947407709e+01 -1.7719865665638784e+02 0 0 0
1836 74 2 0.0000000000000000e+00 -3.1714378367429550e+00 -5.8100448397216951e+01 -1.7764660004699908e+02 0 0 0
584 24 2 0.0000000000000000e+00 -1.0738608766909489e+02 -4.2498056591404563e+01 -1.7337190120035632e+02 0 0 0
594 24 1 0.0000000000000000e+00 -5.8012887833872128e+01 -4.2049725948486319e+01 -1.7680744310654293e+02 0 0 0
4893 196 4 0.0000000000000000e+00 -3.7042540027058244e+01 -5.0895843356389300e+01 -1.7575289327077979e+02 0 0 0
4894 196 3 0.0000000000000000e+00 -4.2395544817898362e+01 -4.2195411482800921e+01 -1.7598462360739418e+02 0 0 0
3255 131 4 0.0000000000000000e+00 -3.4065724712363604e+01 -4.1322856964354152e+01 -1.8425703854251049e+02 0 0 0
3256 131 4 0.0000000000000000e+00 -2.7579996450747668e+01 -4.0999611225374352e+01 -1.7585683245966501e+02 0 0 0
585 24 2 0.0000000000000000e+00 -1.1042372421616189e+02 -3.4564074619239207e+01 -1.7882779873645975e+02 0 0 0
3578 144 4 0.0000000000000000e+00 -9.9663101217977839e+01 -3.6184263568054995e+01 -1.7673711992573951e+02 0 0 0
593 24 2 0.0000000000000000e+00 -6.0597324018787809e+01 -3.4640540032614005e+01 -1.8352541582193550e+02 0 0 0
4896 196 4 0.0000000000000000e+00 -5.0701441222934598e+01 -2.4863318271765916e+01 -1.8148207435408364e+02 0 0 0
4895 196 4 0.0000000000000000e+00 -4.7266894783933921e+01 -3.3329243252016568e+01 -1.7897146011008704e+02 0 0 0
3161 127 4 0.0000000000000000e+00 1.6838279138854727e+01 -3.3726282137852074e+01 -1.7217086258079109e+02 0 0 0
3162 127 4 0.0000000000000000e+00 1.8723008853802298e+01 -3.3330866069831806e+01 -1.8232961137063918e+02 0 0 0
4897 196 4 0.0000000000000000e+00 -4.9612935775380912e+01 -1.5112751254757432e+01 -1.8252537267337502e+02 0 0 0
4898 196 4 0.0000000000000000e+00 -3.9575437547062080e+01 -1.3409538253907101e+01 -1.8183020684485501e+02 0 0 0
4899 196 4 0.0000000000000000e+00 -3.1580099050108753e+01 -1.7155439329293195e+01 -1.7771624353687560e+02 0 0 0
4900 196 3 0.0000000000000000e+00 -2.3512780896467369e+01 -1.1831521428170170e+01 -1.7712591706003002e+02 0 0 0
99 4 2 0.0000000000000000e+00 -1.8100400412353121e+01 -2.0074154309983596e+00 -1.7625626378445494e+02 0 0 0
3166 127 4 0.0000000000000000e+00 3.0376678218380500e+00 -1.8426367695677237e+00 -1.8190947128209851e+02 0 0 0
2169 87 1 0.0000000000000000e+00 -4.2805706158207059e+01 -1.6612530958492621e+02 -1.6744549299446629e+02 0 0 0
2168 87 2 0.0000000000000000e+00 -3.4321802693478467e+01 -1.6429334556805304e+02 -1.6197611499637006e+02 0 0 0
2171 87 2 0.0000000000000000e+00 -5.7119229983705715e+01 -1.5257313467646679e+02 -1.7099206140943437e+02 0 0 0
1406 57 2 0.0000000000000000e+00 -4.9818292903988556e+01 -1.4830117080213677e+02 -1.5883263884157253e+02 0 0 0
2170 87 2 0.0000000000000000e+00 -4.9366596935485227e+01 -1.5904765277974022e+02 -1.7063171477020941e+02 0 0 0
4801 193 3 0.0000000000000000e+00 -4.4576270162943025e+01 -1.5947589015149163e+02 -1.6131481125611694e+02 0 0 0
1407 57 1 0.0000000000000000e+00 -4.7185036697271222e+01 -1.5023780626355642e+02 -1.6816288689605381e+02 0 0 0
3008 121 4 0.0000000000000000e+00 -3.5060259840973011e+01 -1.3781923348048079e+02 -1.6725155055487701e+02 0 0 0
1826 74 1 0.0000000000000000e+00 -7.7034113749644346e+00 -1.4207647035460747e+02 -1.7157862782297767e+02 0 0 0
1827 74 2 0.0000000000000000e+00 -2.9548785362821168e+00 -1.3393184259085174e+02 -1.6841734970731326e+02 0 0 0
4820 193 4 0.0000000000000000e+00 -9.6370475820213073e+01 -1.2346255822347663e+02 -1.5853875051391685e+02 0 0 0
4821 193 4 0.0000000000000000e+00 -8.7732087871882754e+01 -1.2670442314784968e+02 -1.6231430035863505e+02 0 0 0
4822 193 4 0.0000000000000000e+00 -7.9701543428754960e+01 -1.2185122756048507e+02 -1.6390358576869835e+02 0 0 0
1412 57 2 0.0000000000000000e+00 -4.6728574264075924e+01 -1.2213568671392014e+02 -1.6844826135417827e+02 0 0 0
1413 57 1 0.0000000000000000e+00 -3.7411140971832971e+01 -1.2460579833205612e+02 -1.6772859330844204e+02 0 0 0
3007 121 3 0.0000000000000000e+00 -3.1944455042128133e+01 -1.3094795347804705e+02 -1.6018441454537592e+02 0 0 0
4154 167 4 0.0000000000000000e+00 -1.7981028892965536e+01 -1.2830099989689839e+02 -1.6564154830869577e+02 0 0 0
4155 167 4 0.0000000000000000e+00 -9.9682331418913321e+00 -1.2856942013742756e+02 -1.5994344857859400e+02 0 0 0
1828 74 2 0.0000000000000000e+00 3.1969214011730145e+00 -1.2585958228882146e+02 -1.6905492566399280e+02 0 0 0
4156 167 4 0.0000000000000000e+00 -5.7986752570859112e-01 -1.2532719698464436e+02 -1.5878679414207994e+02 0 0 0
4823 193 4 0.0000000000000000e+00 -8.0531988382422398e+01 -1.1247431000547647e+02 -1.6048111624111661e+02 0 0 0
1416 57 2 0.0000000000000000e+00 -5.3620379818510074e+01 -1.0706069512953700e+02 -1.6362503490234005e+02 0 0 0
1415 57 2 0.0000000000000000e+00 -4.4049016685707642e+01 -1.0849436612316360e+02 -1.6347375448357963e+02 0 0 0
1414 57 2 0.0000000000000000e+00 -3.7434769204496988e+01 -1.1578066213785925e+02 -1.6360909594223665e+02 0 0 0
1846 74 2 0.0000000000000000e+00 -1.4988599418632198e+01 -1.1679799360294984e+02 -1.5886255603404743e+02 0 0 0
1844 74 1 0.0000000000000000e+00 -6.4669561983036938e-01 -1.1276719240926903e+02 -1.6960384087270478e+02 0 0 0
1845 74 2 0.0000000000000000e+00 -7.2747963266022637e+00 -1.1916555097586070e+02 -1.6498656135526107e+02 0 0 0
475 19 1 0.0000000000000000e+00 -2.4388340299689384e+00 -1.0605152123095380e+02 -1.5994773428695322e+02 0 0 0
4157 167 3 0.0000000000000000e+00 5.8541850008287861e+00 -1.1841282529177127e+02 -1.6183680446483754e+02 0 0 0
4158 167 4 0.0000000000000000e+00 1.3926815661577193e+01 -1.1532047357612907e+02 -1.6728053349918187e+02 0 0 0
4159 167 4 0.0000000000000000e+00 2.2122453505860090e+01 -1.1398902671101882e+02 -1.6233338864043563e+02 0 0 0
4160 167 4 0.0000000000000000e+00 3.1617354329977513e+01 -1.1486701599665800e+02 -1.6333036217245339e+02 0 0 0
4825 193 3 0.0000000000000000e+00 -8.7315519477150815e+01 -9.6261121151091544e+01 -1.6686155971710431e+02 0 0 0
4824 193 4 0.0000000000000000e+00 -8.4225115968652403e+01 -1.0574726138340689e+02 -1.6693614082581954e+02 0 0 0
1418 57 2 0.0000000000000000e+00 -7.0353991691252915e+01 -1.0147996946827168e+02 -1.6823580832914533e+02 0 0 0
1417 57 2 0.0000000000000000e+00 -6.2115494786011965e+01 -1.0200116652419561e+02 -1.6223044212532147e+02 0 0 0
3151 127 3 0.0000000000000000e+00 4.6173824312219232e+00 -9.8181055044548458e+01 -1.6374824786205880e+02 0 0 0
579 24 2 0.0000000000000000e+00 -8.8858519988444556e+01 -8.5640778633472536e+01 -1.6177657014561203e+02 0 0 0
2239 90 2 0.0000000000000000e+00 -2.1699006028901003e+01 -8.1870972758989325e+01 -1.7119378794238224e+02 0 0 0
4862 195 4 0.0000000000000000e+00 -1.3570144334224077e+01 -9.1923592461626342e+01 -1.6883137401667236e+02 0 0 0
4863 195 3 0.0000000000000000e+00 -1.5016894948498209e+01 -8.4427030132859358e+01 -1.6175831124274009e+02 0 0 0
3152 127 4 0.0000000000000000e+00 9.1099065179859533e+00 -8.9426825978926828e+01 -1.6466697501875299e+02 0 0 0
3153 127 4 0.0000000000000000e+00 1.7297233345810952e+01 -8.3929754254296483e+01 -1.6412352986867711e+02 0 0 0
581 24 2 0.0000000000000000e+00 -9.9045950083417907e+01 -6.9355657385909950e+01 -1.6314956175839444e+02 0 0 0
580 24 2 0.0000000000000000e+00 -9.4291975727837496e+01 -7.7241282087588161e+01 -1.6007785329122726e+02 0 0 0
1422 57 2 0.0000000000000000e+00 -8.3245196628295147e+01 -7.5071339418335725e+01 -1.7070825103589345e+02 0 0 0
1423 57 2 0.0000000000000000e+00 -8.2163194643402250e+01 -6.7065160152649455e+01 -1.6491575467023387e+02 0 0 0
2238 90 1 0.0000000000000000e+00 -2.0984045168533729e+01 -7.5846019794713797e+01 -1.6286229161178483e+02 0 0 0
848 34 2 0.0000000000000000e+00 -5.5682681455089602e+00 -6.8460852546693985e+01 -1.6368741946319889e+02 0 0 0
849 34 2 0.0000000000000000e+00 2.8116382002693299e+00 -7.0658717578511173e+01 -1.6825600551845713e+02 0 0 0
850 34 1 0.0000000000000000e+00 1.2578815106194709e+01 -7.0168989561331514e+01 -1.6758137433782505e+02 0 0 0
3154 127 4 0.0000000000000000e+00 2.4360008996227787e+01 -7.6687060186408857e+01 -1.6256542966190338e+02 0 0 0
582 24 1 0.0000000000000000e+00 -1.0221689087895578e+02 -6.0890825379100235e+01 -1.6785290322837676e+02 0 0 0
1424 57 2 0.0000000000000000e+00 -7.6930161643895815e+01 -6.0294714263017219e+01 -1.6001197244264699e+02 0 0 0
596 24 2 0.0000000000000000e+00 -5.1741138364159632e+01 -5.6511833824012868e+01 -1.6899861889601939e+02 0 0 0
597 24 2 0.0000000000000000e+00 -4.8143509309690785e+01 -5.6005983314383116e+01 -1.5897610100759482e+02 0 0 0
4891 196 4 0.0000000000000000e+00 -2.4968860751165209e+01 -6.1346197094274423e+01 -1.6853633681132126e+02 0 0 0
4890 196 4 0.0000000000000000e+00 -2.5843099343243377e+01 -6.1030864390001589e+01 -1.5907760017164074e+02 0 0 0
846 34 2 0.0000000000000000e+00 -1.6377548397392427e+01 -5.2251056835985978e+01 -1.6013959534239393e+02 0 0 0
847 34 2 0.0000000000000000e+00 -1.0943229291724776e+01 -5.9982839081497133e+01 -1.5987543543727216e+02 0 0 0
3263 131 3 0.0000000000000000e+00 1.7181503889927296e+01 -6.3333238708739536e+01 -1.5984613821921491e+02 0 0 0
583 24 2 0.0000000000000000e+00 -1.0529518303000316e+02 -5.0855195831686707e+01 -1.6728721917694509e+02 0 0 0
3579 144 4 0.0000000000000000e+00 -9.4481539397503269e+01 -4.0713956620847910e+01 -1.6878047725960690e+02 0 0 0
3580 144 4 0.0000000000000000e+00 -8.9315753933447624e+01 -4.1044171810385208e+01 -1.6011058637850169e+02 0 0 0
843 34 2 0.0000000000000000e+00 -2.9870415655400890e+01 -3.7906769487903887e+01 -1.5823820130426668e+02 0 0 0
3258 131 4 0.0000000000000000e+00 -1.1895127227504300e+01 -4.0375110500639011e+01 -1.7144079239854400e+02 0 0 0
3259 131 4 0.0000000000000000e+00 -9.0998785123509354e+00 -4.1322079275751655e+01 -1.6188874979645925e+02 0 0 0
3160 127 4 0.0000000000000000e+00 1.2571640535392280e+01 -3.7877188116522660e+01 -1.6437400424155251e+02 0 0 0
3265 131 4 0.0000000000000000e+00 3.1189858923130810e+01 -5.0707719063803644e+01 -1.5887740688460687e+02 0 0 0
4460 179 4 0.0000000000000000e+00 2.5471214509660452e+01 -4.0365247745021655e+01 -1.5855595766859619e+02 0 0 0
2976 120 3 0.0000000000000000e+00 -7.4003598435822539e+01 -2.8043463457116484e+01 -1.6099198908971434e+02 0 0 0
3725 149 3 0.0000000000000000e+00 -5.7406264329653510e+01 -3.4524742223078228e+01 -1.6783235286598031e+02 0 0 0
3724 149 4 0.0000000000000000e+00 -5.5971017066030164e+01 -2.4573157486316486e+01 -1.6829306594009870e+02 0 0 0
842 34 2 0.0000000000000000e+00 -3.0482402305335739e+01 -2.8200619634419013e+01 -1.5958281366281813e+02 0 0 0
3257 131 3 0.0000000000000000e+00 -2.0601513922430279e+01 -3.5720841249440376e+01 -1.7051609433547398e+02 0 0 0
837 34 2 0.0000000000000000e+00 -1.2489818311352211e+01 -2.9233317928185862e+01 -1.5908609585411500e+02 0 0 0
838 34 1 0.0000000000000000e+00 -1.9685520836992758e+01 -2.6024201628175209e+01 -1.6544135057117717e+02 0 0 0
4461 179 4 0.0000000000000000e+00 3.0419932529914409e+01 -3.1327571915242757e+01 -1.5825241118134511e+02 0 0 0
2977 120 4 0.0000000000000000e+00 -7.2175490236836367e+01 -1.8595312441255526e+01 -1.5958840977635356e+02 0 0 0
3723 149 4 0.0000000000000000e+00 -5.5354083644231423e+01 -1.4736226766628880e+01 -1.6456414515227627e+02 0 0 0
841 34 2 0.0000000000000000e+00 -3.6746455834223333e+01 -2.0251992028785939e+01 -1.5960919732709760e+02 0 0 0
840 34 2 0.0000000000000000e+00 -3.4155961865336835e+01 -1.2899670345185319e+01 -1.6516762487365133e+02 0 0 0
839 34 2 0.0000000000000000e+00 -2.8187202729808320e+01 -2.0591610679822992e+01 -1.6695459621762413e+02 0 0 0
3722 149 4 0.0000000000000000e+00 -5.8287808772668619e+01 -5.3293796277555590e+00 -1.6195381261602319e+02 0 0 0
100 4 1 0.0000000000000000e+00 -2.3119890119281109e+01 -4.7116712229278228e+00 -1.6861051198123354e+02 0 0 0
257 11 1 0.0000000000000000e+00 -5.2072648568532764e-01 2.9280244001411946e+00 -1.6441757693583946e+02 0 0 0
4258 171 4 0.0000000000000000e+00 1.1419810783526732e+01 -8.9047412143619429e+00 -1.6291504998720916e+02 0 0 0
4257 171 3 0.0000000000000000e+00 9.2934168739197105e+00 -8.5982950311872164e-01 -1.6829802145887533e+02 0 0 0
4802 193 4 0.0000000000000000e+00 -4.1106906011536445e+01 -1.6576049232354390e+02 -1.5443139047826585e+02 0 0 0
4803 193 4 0.0000000000000000e+00 -3.5257803790624415e+01 -1.6899887574735490e+02 -1.4640142000659660e+02 0 0 0
2167 87 2 0.0000000000000000e+00 -2.7199851159349425e+01 -1.6287281187425413e+02 -1.5519096061697834e+02 0 0 0
2166 87 2 0.0000000000000000e+00 -2.4887526744286454e+01 -1.5634641757670772e+02 -1.4786309948609266e+02 0 0 0
1405 57 2 0.0000000000000000e+00 -5.4145147456408544e+01 -1.4168086159274634e+02 -1.5230728012033458e+02 0 0 0
4819 193 3 0.0000000000000000e+00 -1.0109976986441329e+02 -1.1963833430075526e+02 -1.5054727268845309e+02 0 0 0
1404 57 2 0.0000000000000000e+00 -5.4606193661636603e+01 -1.3271031094078660e+02 -1.4743976045155091e+02 0 0 0
3006 121 4 0.0000000000000000e+00 -3.5975571601354844e+01 -1.2748857871204035e+02 -1.5224027274210630e+02 0 0 0
1000 40 1 0.0000000000000000e+00 -1.0200113811081754e+02 -1.0850340262801771e+02 -1.5265799742277110e+02 0 0 0
1847 74 2 0.0000000000000000e+00 -2.3540511374593695e+01 -1.1883435418749693e+02 -1.5445884103016337e+02 0 0 0
1848 74 2 0.0000000000000000e+00 -3.0957662354486299e+01 -1.1506129661955165e+02 -1.5064465038611141e+02 0 0 0
474 19 2 0.0000000000000000e+00 6.5951389083319736e+00 -1.0813708432805534e+02 -1.5675831426665570e+02 0 0 0
999 40 2 0.0000000000000000e+00 -9.8512188558439490e+01 -1.0008489735491879e+02 -1.4759258537508194e+02 0 0 0
578 24 2 0.0000000000000000e+00 -9.0710255349471396e+01 -9.4922410886218898e+01 -1.5769269616715735e+02 0 0 0
577 24 2 0.0000000000000000e+00 -8.7614326804631318e+01 -1.0228797437567076e+02 -1.5167791599147506e+02 0 0 0
473 19 2 0.0000000000000000e+00 1.1887101189209929e+01 -1.0010695575373984e+02 -1.5249977300873968e+02 0 0 0
4864 195 4 0.0000000000000000e+00 -1.2113696128901310e+01 -7.9786152656818587e+01 -1.5408245891173144e+02 0 0 0
472 19 2 0.0000000000000000e+00 1.7457146017596422e+01 -9.1693990094499597e+01 -1.5160423313227128e+02 0 0 0
471 19 2 0.0000000000000000e+00 2.7535503416540397e+01 -8.9099134413563647e+01 -1.5240330048784722e+02 0 0 0
2237 90 2 0.0000000000000000e+00 -2.4573574949834470e+01 -7.0649139130585539e+01 -1.5487638745350043e+02 0 0 0
4865 195 4 0.0000000000000000e+00 -6.4644611535893146e+00 -7.2736835045669480e+01 -1.4992656736320598e+02 0 0 0
4866 195 4 0.0000000000000000e+00 3.0779421171420944e+00 -7.1164842304835929e+01 -1.4725027313178930e+02 0 0 0
3156 127 4 0.0000000000000000e+00 1.7764593405706616e+01 -6.7882581059100232e+01 -1.4907769604749629e+02 0 0 0
3155 127 4 0.0000000000000000e+00 2.5395143823178199e+01 -7.3373089631404028e+01 -1.5308015823045346e+02 0 0 0
3582 144 3 0.0000000000000000e+00 -7.8433883675018535e+01 -5.1861866795169611e+01 -1.4816305160973951e+02 0 0 0
598 24 2 0.0000000000000000e+00 -4.4686553432489738e+01 -6.0582144362038420e+01 -1.5054036082607641e+02 0 0 0
4889 196 4 0.0000000000000000e+00 -2.7178430740577433e+01 -5.4819684668513609e+01 -1.5139526098267081e+02 0 0 0
2236 90 2 0.0000000000000000e+00 -2.0369132664718542e+01 -6.2712280734157694e+01 -1.4940662651027915e+02 0 0 0
2235 90 2 0.0000000000000000e+00 -1.0814802964350100e+01 -6.1677159207297670e+01 -1.4507876327689971e+02 0 0 0
3261 131 4 0.0000000000000000e+00 4.3587359423272815e-01 -5.7189836791366638e+01 -1.5521215983676811e+02 0 0 0
3262 131 4 0.0000000000000000e+00 7.7386227298254218e+00 -6.4299132110325814e+01 -1.5687007985402644e+02 0 0 0
3157 127 3 0.0000000000000000e+00 1.3348713936381150e+01 -5.9017555374951911e+01 -1.4604414921820992e+02 0 0 0
3264 131 4 0.0000000000000000e+00 2.5476861640293190e+01 -5.8647706785536016e+01 -1.5666040909462578e+02 0 0 0
3581 144 4 0.0000000000000000e+00 -8.4966641835614226e+01 -4.7329980710423825e+01 -1.5422201506763179e+02 0 0 0
1425 57 1 0.0000000000000000e+00 -7.3116891051541330e+01 -5.1089802945704960e+01 -1.5788171750871714e+02 0 0 0
3583 144 4 0.0000000000000000e+00 -6.9192434744612186e+01 -4.9810044159710522e+01 -1.4456914216498578e+02 0 0 0
3584 144 4 0.0000000000000000e+00 -6.1890432864483564e+01 -4.3247934257441116e+01 -1.4583492488968002e+02 0 0 0
844 34 1 0.0000000000000000e+00 -2.2911416157082805e+01 -4.0183884665256763e+01 -1.5080356877637746e+02 0 0 0
845 34 2 0.0000000000000000e+00 -1.4331725524524837e+01 -4.5114927491187458e+01 -1.5359303911921225e+02 0 0 0
4888 196 3 0.0000000000000000e+00 -1.9867686940237533e+01 -4.9960212703178485e+01 -1.4613983839232094e+02 0 0 0
3260 131 4 0.0000000000000000e+00 -1.8229226966768406e+00 -4.7434424623786626e+01 -1.5769289235381760e+02 0 0 0
4886 196 4 0.0000000000000000e+00 -5.8364455176485430e+00 -3.9065971101837540e+01 -1.4650189837690780e+02 0 0 0
3159 127 4 0.0000000000000000e+00 1.4209984651804110e+01 -4.4682093019098019e+01 -1.5713947897473648e+02 0 0 0
3158 127 4 0.0000000000000000e+00 1.1424308950166205e+01 -4.8888019771838906e+01 -1.4840782889135568e+02 0 0 0
4459 179 4 0.0000000000000000e+00 2.1792838145232917e+01 -4.5736191731560311e+01 -1.5078490577784225e+02 0 0 0
261 11 2 0.0000000000000000e+00 1.2428709265054074e+01 -2.8033300858030675e+01 -1.4781012294135974e+02 0 0 0
4746 190 4 0.0000000000000000e+00 -2.8222197181420114e+01 -2.4117175856093784e+01 -1.4507888979287441e+02 0 0 0
4745 190 4 0.0000000000000000e+00 -2.3412373841559269e+01 -1.6803601408011758e+01 -1.5033323238381581e+02 0 0 0
836 34 2 0.0000000000000000e+00 -4.9977727098527414e+00 -2.3792937568145064e+01 -1.5540343063414213e+02 0 0 0
835 34 2 0.0000000000000000e+00 -3.7371378225354355e+00 -2.3597701954221392e+01 -1.4516017427794768e+02 0 0 0
259 11 2 0.0000000000000000e+00 1.0114693281024614e+00 -1.3623494046973043e+01 -1.5549096676324328e+02 0 0 0
260 11 2 0.0000000000000000e+00 5.6221783047262646e+00 -2.2079755298088422e+01 -1.5215392112094491e+02 0 0 0
4259 171 4 0.0000000000000000e+00 1.5927354657050746e+01 -1.3385491468232409e+01 -1.5474005895377184e+02 0 0 0
829 34 2 0.0000000000000000e+00 2.1156691670934091e+01 -1.8652165589361612e+01 -1.4901271602862209e+02 0 0 0
828 34 2 0.0000000000000000e+00 2.5058350723260936e+01 -2.0717924249384584e+01 -1.5799928127513496e+02 0 0 0
2979 120 4 0.0000000000000000e+00 -7.6483478701759921e+01 1.1361214471346068e+00 -1.5636875229198927e+02 0 0 0
2978 120 4 0.0000000000000000e+00 -7.2665163692483119e+01 -8.4039383690903904e+00 -1.5781565807686223e+02 0 0 0
3721 149 4 0.0000000000000000e+00 -5.4113386121482669e+01 2.2097653047373855e+00 -1.5773719759181199e+02 0 0 0
4743 190 4 0.0000000000000000e+00 -3.3839941874899928e+01 -3.3522077138788018e+00 -1.4898589749847844e+02 0 0 0