LAMMPS data file via write_data, version 5 Jun 2019, timestep = 380000000

5000 atoms
4 atom types
5203 bonds
3 bond types
4600 angles
2 angle types

-5.0000000000000000e+02 5.0000000000000000e+02 xlo xhi
-5.0000000000000000e+02 5.0000000000000000e+02 ylo yhi
-5.0000000000000000e+02 5.0000000000000000e+02 zlo zhi

Masses

1 1000
2 1000
3 1000
4 1000

Pair Coeffs # lj/cut

1 0.18 10
2 0.18 10
3 0.18 10
4 0.18 10

Bond Coeffs # harmonic

1 3 10
2 3 10
3 1.8 11.22

Angle Coeffs # cosine

1 2
2 2

Atoms # full

4851 195 3 0.0000000000000000e+00 -1.0117885190675226e+02 -1.5750116901482201e+02 -1.9008024983894327e+02 0 0 0
4852 195 4 0.0000000000000000e+00 -1.0325692462483694e+02 -1.6192719268087532e+02 -1.8169304326674282e+02 0 0 0
4853 195 4 0.0000000000000000e+00 -1.0503603069451987e+02 -1.6578733373884401e+02 -1.7293102608963281e+02 0 0 0
4820 193 4 0.0000000000000000e+00 6.8691492165029411e+00 -9.3070235686666820e+01 -1.7371742568226398e+02 0 0 0
4825 193 3 0.0000000000000000e+00 -2.3674835010579706e+01 -8.2480189337423568e+01 -1.7631952860380250e+02 0 0 0
4821 193 4 0.0000000000000000e+00 1.2493233064468690e-01 -8.5496577467304689e+01 -1.7451400706729521e+02 0 0 0
4824 193 4 0.0000000000000000e+00 -1.9933752070670714e+01 -7.3097893213097862e+01 -1.7617735085716001e+02 0 0 0
4823 193 4 0.0000000000000000e+00 -1.1142674976633366e+01 -7.3217511562269578e+01 -1.8112085864191988e+02 0 0 0
4822 193 4 0.0000000000000000e+00 -3.0766438574894819e+00 -7.6394646544909932e+01 -1.7666909847103796e+02 0 0 0
4854 195 4 0.0000000000000000e+00 -9.8159564048861171e+01 -1.6353186711606372e+02 -1.6627582485540916e+02 0 0 0
4855 195 4 0.0000000000000000e+00 -9.2444148414275304e+01 -1.5829859160787220e+02 -1.5989351364794919e+02 0 0 0
2339 94 2 0.0000000000000000e+00 -8.9982086670559653e+01 -1.3594693248598631e+02 -1.5819058308557820e+02 0 0 0
2338 94 1 0.0000000000000000e+00 -7.9879597519122726e+01 -1.3616931301398566e+02 -1.5857512536516455e+02 0 0 0
1740 70 2 0.0000000000000000e+00 1.2960276667090831e+01 -1.2143825760358371e+02 -1.5722028991180142e+02 0 0 0
1741 70 2 0.0000000000000000e+00 2.1736522330897113e+01 -1.1830386559314127e+02 -1.6061749347650061e+02 0 0 0
4819 193 3 0.0000000000000000e+00 1.0214182751715841e+01 -9.0340004648623520e+01 -1.6428940673928685e+02 0 0 0
4818 193 4 0.0000000000000000e+00 9.8836614899771096e+00 -8.2461875289255772e+01 -1.5876772564849142e+02 0 0 0
4856 195 4 0.0000000000000000e+00 -8.5354603336844406e+01 -1.5195687537502269e+02 -1.5442610951141612e+02 0 0 0
4857 195 3 0.0000000000000000e+00 -8.1003126810607128e+01 -1.4420712146283148e+02 -1.4997953417194654e+02 0 0 0
2337 94 2 0.0000000000000000e+00 -7.2010119039774295e+01 -1.3584002503756662e+02 -1.5278082783728581e+02 0 0 0
2340 94 2 0.0000000000000000e+00 -9.7040353517003481e+01 -1.3078596014710470e+02 -1.5320503347210598e+02 0 0 0
2341 94 2 0.0000000000000000e+00 -1.0070609027589903e+02 -1.3061537770867525e+02 -1.4367867105342103e+02 0 0 0
2336 94 2 0.0000000000000000e+00 -6.2444221375661421e+01 -1.3241358935836664e+02 -1.5413433248113506e+02 0 0 0
2335 94 2 0.0000000000000000e+00 -5.8693257527259803e+01 -1.2426610356259896e+02 -1.4913116881724554e+02 0 0 0
2777 112 4 0.0000000000000000e+00 -1.3811823688035732e+01 -1.2223739134959446e+02 -1.4275427929873655e+02 0 0 0
2778 112 4 0.0000000000000000e+00 -4.1070256668777825e+00 -1.2081543699476860e+02 -1.4342211054512023e+02 0 0 0
1739 70 2 0.0000000000000000e+00 3.5702799118497821e+00 -1.2242747160471068e+02 -1.5351780705253833e+02 0 0 0
2333 94 2 0.0000000000000000e+00 -7.5466920056231970e+01 -1.1590824578467067e+02 -1.4718402025319472e+02 0 0 0
2334 94 2 0.0000000000000000e+00 -6.5446757793902350e+01 -1.1683962514726292e+02 -1.4839700325932120e+02 0 0 0
1736 70 2 0.0000000000000000e+00 -2.1231316059161426e+01 -1.0967804750302977e+02 -1.4838696967203387e+02 0 0 0
1737 70 2 0.0000000000000000e+00 -1.2417352124337459e+01 -1.1365702930420981e+02 -1.5049720485685364e+02 0 0 0
1738 70 1 0.0000000000000000e+00 -3.3544533494020037e+00 -1.1519770251333371e+02 -1.5340050896852387e+02 0 0 0
4463 179 3 0.0000000000000000e+00 -9.0455910014312551e+01 -1.0640191077740597e+02 -1.4386003781351411e+02 0 0 0
1734 70 2 0.0000000000000000e+00 -3.3742748839077706e+01 -9.6864831741745306e+01 -1.4779215677981983e+02 0 0 0
1735 70 2 0.0000000000000000e+00 -2.4712927265892237e+01 -1.0029996624316179e+02 -1.4747544972584618e+02 0 0 0
1733 70 2 0.0000000000000000e+00 -4.1161276274765093e+01 -9.0939242940463942e+01 -1.4587243186345870e+02 0 0 0
4817 193 4 0.0000000000000000e+00 1.0493135788421895e+01 -7.7048995857696980e+01 -1.5005160684865950e+02 0 0 0
4858 195 4 0.0000000000000000e+00 -7.6965305859149908e+01 -1.4369466839098661e+02 -1.4069056496377067e+02 0 0 0
4859 195 4 0.0000000000000000e+00 -7.3987312939239203e+01 -1.4434205092519625e+02 -1.3131356227759247e+02 0 0 0
832 34 1 0.0000000000000000e+00 2.6407127075206098e+01 -1.4713162618839880e+02 -1.3359693363265842e+02 0 0 0
2342 94 2 0.0000000000000000e+00 -1.0607141023872269e+02 -1.3055296285648356e+02 -1.3525105426135468e+02 0 0 0
4467 179 4 0.0000000000000000e+00 -7.2292112962574478e+01 -1.2038373981191096e+02 -1.3040958696374696e+02 0 0 0
4468 179 4 0.0000000000000000e+00 -6.2754681981665819e+01 -1.2363219050707518e+02 -1.3032034576948871e+02 0 0 0
2776 112 3 0.0000000000000000e+00 -2.0239971255635936e+01 -1.2215657331073561e+02 -1.3566497357146167e+02 0 0 0
2779 112 4 0.0000000000000000e+00 5.3992977840889074e+00 -1.2068279367839821e+02 -1.3962826050355514e+02 0 0 0
2780 112 4 0.0000000000000000e+00 1.4412132550425850e+01 -1.2276966275957184e+02 -1.3928697998802312e+02 0 0 0
2781 112 4 0.0000000000000000e+00 2.4761104663426909e+01 -1.2432596267738882e+02 -1.3702272568490795e+02 0 0 0
4464 179 4 0.0000000000000000e+00 -9.3710922537255215e+01 -1.1505782010089629e+02 -1.3984156342083156e+02 0 0 0
4465 179 4 0.0000000000000000e+00 -9.0884380340855230e+01 -1.1687363316195740e+02 -1.3027252828910508e+02 0 0 0
2332 94 1 0.0000000000000000e+00 -8.3886348341461655e+01 -1.1476589559296399e+02 -1.4117765612418376e+02 0 0 0
2331 94 2 0.0000000000000000e+00 -7.7719167276232213e+01 -1.1213501032302568e+02 -1.3407876581886259e+02 0 0 0
4462 179 4 0.0000000000000000e+00 -8.5225085073266314e+01 -1.0416506649418562e+02 -1.3537955190477649e+02 0 0 0
4461 179 4 0.0000000000000000e+00 -8.5453872576030960e+01 -9.3758536005676518e+01 -1.3537707169172731e+02 0 0 0
4551 183 3 0.0000000000000000e+00 -5.2285124464316965e+01 -9.4322095804504073e+01 -1.4245648484803860e+02 0 0 0
4460 179 4 0.0000000000000000e+00 -8.8432189816399699e+01 -8.4102188761632732e+01 -1.3311400949503670e+02 0 0 0
4552 183 4 0.0000000000000000e+00 -4.9338117159860595e+01 -9.1937513707312462e+01 -1.3284047999596996e+02 0 0 0
1732 70 1 0.0000000000000000e+00 -4.6061843030679199e+01 -8.4755999126719871e+01 -1.4007042550633727e+02 0 0 0
2326 94 1 0.0000000000000000e+00 -7.3889085460940223e+01 -7.2383610217617758e+01 -1.3527395184206219e+02 0 0 0
4804 193 4 0.0000000000000000e+00 -5.6630775409858479e+01 -6.7519335518263901e+01 -1.4186490941153855e+02 0 0 0
1731 70 2 0.0000000000000000e+00 -4.6719541896188041e+01 -7.7891020025749853e+01 -1.3366561199333330e+02 0 0 0
1848 74 2 0.0000000000000000e+00 -1.6613721526581021e+01 -6.9840470145288378e+01 -1.3148727063257874e+02 0 0 0
4815 193 4 0.0000000000000000e+00 6.1399373548101206e+00 -6.8254380026313811e+01 -1.3406432019823652e+02 0 0 0
4816 193 4 0.0000000000000000e+00 6.4039000474415282e+00 -7.6245833754228883e+01 -1.4040967884298186e+02 0 0 0
4860 195 4 0.0000000000000000e+00 -7.3901916145180721e+01 -1.5215796853630789e+02 -1.2461736134366350e+02 0 0 0
4861 195 4 0.0000000000000000e+00 -7.1915684136471086e+01 -1.5071597195020772e+02 -1.1523358827481638e+02 0 0 0
4312 173 4 0.0000000000000000e+00 1.9061933081354653e+01 -1.5840538660267339e+02 -1.2222134762003793e+02 0 0 0
4313 173 3 0.0000000000000000e+00 2.6911758958091706e+01 -1.5334696897095608e+02 -1.2375555901016267e+02 0 0 0
834 34 2 0.0000000000000000e+00 1.5109744968536905e+01 -1.3381136676387075e+02 -1.2396991349981681e+02 0 0 0
835 34 2 0.0000000000000000e+00 5.4353976610610371e+00 -1.3379970852292550e+02 -1.2072204505503420e+02 0 0 0
833 34 2 0.0000000000000000e+00 2.1278420597777760e+01 -1.4179732271343624e+02 -1.2707056773600608e+02 0 0 0
2343 94 2 0.0000000000000000e+00 -1.0861539818929032e+02 -1.2446108814582190e+02 -1.2741286680886832e+02 0 0 0
4466 179 4 0.0000000000000000e+00 -8.2386061884676380e+01 -1.2155161966614543e+02 -1.2854981860187590e+02 0 0 0
4471 179 4 0.0000000000000000e+00 -7.3798867918006110e+01 -1.2030127178748130e+02 -1.1827135926814792e+02 0 0 0
1534 62 2 0.0000000000000000e+00 -5.3171163077808785e+01 -1.2301373384719952e+02 -1.2398428360424074e+02 0 0 0
1535 62 2 0.0000000000000000e+00 -5.9756320547344387e+01 -1.2391644835431383e+02 -1.1608964609288527e+02 0 0 0
839 34 2 0.0000000000000000e+00 -1.1080358257045237e+01 -1.2402246841205613e+02 -1.1683610183931002e+02 0 0 0
838 34 1 0.0000000000000000e+00 -1.6302763383221532e+01 -1.2079893490166121e+02 -1.2515657183711266e+02 0 0 0
837 34 2 0.0000000000000000e+00 -8.1167112485918498e+00 -1.2596934493128779e+02 -1.2820169949503372e+02 0 0 0
836 34 2 0.0000000000000000e+00 -4.1486972746641015e+00 -1.3085472717741754e+02 -1.2067683277085835e+02 0 0 0
4384 176 4 0.0000000000000000e+00 2.5261903524546206e+01 -1.2803306590271697e+02 -1.1980993533608593e+02 0 0 0
3925 157 3 0.0000000000000000e+00 -1.1249705041215400e+02 -1.0954784555724929e+02 -1.1980342580435361e+02 0 0 0
2344 94 1 0.0000000000000000e+00 -1.0336632874529714e+02 -1.1656828878270102e+02 -1.2291064406053809e+02 0 0 0
2345 94 2 0.0000000000000000e+00 -9.7831032406701539e+01 -1.0887359867078524e+02 -1.1927613026785870e+02 0 0 0
4472 179 4 0.0000000000000000e+00 -8.2927570420917419e+01 -1.1799933343467087e+02 -1.1534373657285673e+02 0 0 0
4470 179 4 0.0000000000000000e+00 -6.6353231434553749e+01 -1.1422117624244149e+02 -1.1772535774074247e+02 0 0 0
4469 179 3 0.0000000000000000e+00 -5.9612729888286587e+01 -1.1499435030499797e+02 -1.2455006148799724e+02 0 0 0
1533 62 2 0.0000000000000000e+00 -4.9153436736909789e+01 -1.1544639382566780e+02 -1.1974322741516373e+02 0 0 0
1841 74 2 0.0000000000000000e+00 -3.2628619209260115e+01 -1.1089774147587863e+02 -1.1706972167217349e+02 0 0 0
4385 176 4 0.0000000000000000e+00 2.6301400869999821e+01 -1.1869843138213911e+02 -1.1958945519764359e+02 0 0 0
4386 176 4 0.0000000000000000e+00 1.8723024673002683e+01 -1.1257752891785299e+02 -1.1579119118854534e+02 0 0 0
2346 94 2 0.0000000000000000e+00 -9.9490658797918954e+01 -9.9604844222076551e+01 -1.2309709388032920e+02 0 0 0
2330 94 2 0.0000000000000000e+00 -7.5472094764858042e+01 -1.0532968304573726e+02 -1.2670413499033572e+02 0 0 0
2329 94 2 0.0000000000000000e+00 -7.7174234375604826e+01 -9.6502866527858046e+01 -1.2219222989347885e+02 0 0 0
1532 62 1 0.0000000000000000e+00 -5.2650296879626957e+01 -1.0616304074545907e+02 -1.2041285353558418e+02 0 0 0
1842 74 2 0.0000000000000000e+00 -3.9058264294506174e+01 -1.0333767045965521e+02 -1.1527807898280568e+02 0 0 0
1843 74 2 0.0000000000000000e+00 -4.0200747655938706e+01 -9.3710878373399595e+01 -1.1767490073778394e+02 0 0 0
4388 176 3 0.0000000000000000e+00 1.1282134056535723e+01 -9.5242833663313817e+01 -1.1942665878763486e+02 0 0 0
4387 176 4 0.0000000000000000e+00 1.3099618807041061e+01 -1.0469664417516501e+02 -1.1613774768795830e+02 0 0 0
2347 94 2 0.0000000000000000e+00 -9.6339957668601457e+01 -9.0402786604476717e+01 -1.2541267047594455e+02 0 0 0
4459 179 4 0.0000000000000000e+00 -9.0179316455721647e+01 -8.0351359044085399e+01 -1.2417246447363007e+02 0 0 0
2348 94 2 0.0000000000000000e+00 -8.8076959000573780e+01 -8.7854985088859806e+01 -1.1953404403854398e+02 0 0 0
2328 94 2 0.0000000000000000e+00 -7.6495298113569433e+01 -8.6331014488715994e+01 -1.2223367656161597e+02 0 0 0
4553 183 4 0.0000000000000000e+00 -5.2127489268410841e+01 -8.3629433000958812e+01 -1.2732402005909159e+02 0 0 0
4554 183 4 0.0000000000000000e+00 -4.4902225290436462e+01 -8.1352197065897300e+01 -1.2051122226615890e+02 0 0 0
1844 74 1 0.0000000000000000e+00 -3.5109876969131641e+01 -8.5440798670710919e+01 -1.2064126370090476e+02 0 0 0
4389 176 4 0.0000000000000000e+00 2.0653289182661099e+00 -9.2230759993281822e+01 -1.1717390233829184e+02 0 0 0
1748 70 2 0.0000000000000000e+00 2.7321302625238918e+01 -9.1206391722527997e+01 -1.2490707749630219e+02 0 0 0
1749 70 2 0.0000000000000000e+00 2.1694797129677152e+01 -9.2803775096934245e+01 -1.1698107218720470e+02 0 0 0
4458 179 4 0.0000000000000000e+00 -9.7520695367911401e+01 -7.8788454154726708e+01 -1.1759716840845975e+02 0 0 0
4457 179 3 0.0000000000000000e+00 -8.8759578522134433e+01 -7.3480049122377565e+01 -1.1569657304147132e+02 0 0 0
2327 94 2 0.0000000000000000e+00 -7.6555924198807574e+01 -7.7959200203877856e+01 -1.2752388204398575e+02 0 0 0
1730 70 2 0.0000000000000000e+00 -5.0433593680827684e+01 -7.0394820990949341e+01 -1.2804271592129786e+02 0 0 0
1845 74 2 0.0000000000000000e+00 -3.3095943107044071e+01 -7.6543379086147468e+01 -1.2581857030143416e+02 0 0 0
1846 74 2 0.0000000000000000e+00 -3.5773436758826222e+01 -6.7377320540397051e+01 -1.2879646203486365e+02 0 0 0
1847 74 2 0.0000000000000000e+00 -2.6078035817694936e+01 -6.9191799838375772e+01 -1.2690816661575647e+02 0 0 0
1849 74 2 0.0000000000000000e+00 -8.0964987624771272e+00 -7.1798138393919686e+01 -1.2701032736296904e+02 0 0 0
1850 74 1 0.0000000000000000e+00 1.4119204188573313e+00 -7.4551988382650464e+01 -1.2516050009008059e+02 0 0 0
3263 131 3 0.0000000000000000e+00 1.2131332218897631e+01 -7.4968030794242750e+01 -1.2267543882257939e+02 0 0 0
3264 131 4 0.0000000000000000e+00 1.6243260512806156e+01 -6.7232972622589884e+01 -1.2783438727533269e+02 0 0 0
4310 173 4 0.0000000000000000e+00 2.1721637788723633e+01 -1.7055571526667845e+02 -1.0708892186594599e+02 0 0 0
4311 173 4 0.0000000000000000e+00 2.3210420194946053e+01 -1.6425944679097410e+02 -1.1476487290784492e+02 0 0 0
4309 173 4 0.0000000000000000e+00 2.9406711893066714e+01 -1.7409384507544416e+02 -1.0216532596997568e+02 0 0 0
2171 87 2 0.0000000000000000e+00 2.3541539412723974e+01 -1.5125367502576555e+02 -1.0190504804989219e+02 0 0 0
4862 195 4 0.0000000000000000e+00 -6.8902843416457202e+01 -1.4638823901483210e+02 -1.0619959452688960e+02 0 0 0
4863 195 3 0.0000000000000000e+00 -5.9611959168378519e+01 -1.4166752149866215e+02 -1.0495218721664234e+02 0 0 0
4864 195 4 0.0000000000000000e+00 -4.9764897131398975e+01 -1.4035635102781495e+02 -1.0429598648359048e+02 0 0 0
4865 195 4 0.0000000000000000e+00 -3.9661507411284454e+01 -1.3863618205887391e+02 -1.0292917380957302e+02 0 0 0
840 34 2 0.0000000000000000e+00 -1.5233585643781106e+01 -1.2858180073849803e+02 -1.0929210005789882e+02 0 0 0
1839 74 2 0.0000000000000000e+00 -2.1349444688130760e+01 -1.2116427383341896e+02 -1.0478802831879621e+02 0 0 0
4400 176 3 0.0000000000000000e+00 1.0025003875368563e+01 -1.2797150556240290e+02 -1.0267991433093451e+02 0 0 0
4383 176 4 0.0000000000000000e+00 2.5929792010245372e+01 -1.3364866945622316e+02 -1.1129602292905989e+02 0 0 0
4473 179 4 0.0000000000000000e+00 -8.9542751369439216e+01 -1.1196075569799652e+02 -1.0951585202952108e+02 0 0 0
1536 62 2 0.0000000000000000e+00 -5.8385537353408793e+01 -1.1801701454760345e+02 -1.0839374050922945e+02 0 0 0
1840 74 2 0.0000000000000000e+00 -2.7777248651359887e+01 -1.1747708473251048e+02 -1.1159560478193934e+02 0 0 0
2278 92 2 0.0000000000000000e+00 -1.5809242529309557e+02 -9.3353954723228881e+01 -1.0550891392236792e+02 0 0 0
3924 157 4 0.0000000000000000e+00 -1.1351981334393780e+02 -1.0207340427891533e+02 -1.1349118390376792e+02 0 0 0
1530 62 2 0.0000000000000000e+00 -6.1948741939911756e+01 -1.0320048994985665e+02 -1.0259332019756422e+02 0 0 0
1531 62 2 0.0000000000000000e+00 -5.8531037877481772e+01 -1.0429559238251115e+02 -1.1217428774426870e+02 0 0 0
4517 181 4 0.0000000000000000e+00 -4.8724505473284019e+01 -9.6375220576750195e+01 -1.0447769896597130e+02 0 0 0
2279 92 2 0.0000000000000000e+00 -1.5905218466986150e+02 -8.5469507908922353e+01 -1.1104105001159336e+02 0 0 0
3923 157 4 0.0000000000000000e+00 -1.1304472735974591e+02 -9.2446162453120024e+01 -1.1003567116885002e+02 0 0 0
3922 157 4 0.0000000000000000e+00 -1.1271760134213454e+02 -8.5773631318417188e+01 -1.0228589543142637e+02 0 0 0
2349 94 2 0.0000000000000000e+00 -8.1911963968727449e+01 -8.6921239283768827e+01 -1.1214518367777191e+02 0 0 0
4518 181 4 0.0000000000000000e+00 -5.4804089087162431e+01 -8.8350468515605641e+01 -1.0410320547957889e+02 0 0 0
4555 183 4 0.0000000000000000e+00 -4.2883414490487226e+01 -7.9768656961489299e+01 -1.1079212932361553e+02 0 0 0
4557 183 3 0.0000000000000000e+00 -2.6952649935058556e+01 -8.1828676150233264e+01 -1.1416143132045930e+02 0 0 0
4558 183 4 0.0000000000000000e+00 -2.1907194019745756e+01 -8.7664945480944510e+01 -1.0757915934045155e+02 0 0 0
4390 176 4 0.0000000000000000e+00 -3.6119107290248693e+00 -8.9218341989610025e+01 -1.0921502589975789e+02 0 0 0
1750 70 1 0.0000000000000000e+00 1.5036082905581285e+01 -8.9663469107366055e+01 -1.0985632285121537e+02 0 0 0
2280 92 2 0.0000000000000000e+00 -1.5412942499970043e+02 -7.7683990847979572e+01 -1.0732404774920118e+02 0 0 0
2281 92 2 0.0000000000000000e+00 -1.4446756967939442e+02 -7.4429195932498729e+01 -1.0750002725818661e+02 0 0 0
2283 92 2 0.0000000000000000e+00 -1.2922563046228709e+02 -6.8094487995292425e+01 -1.0346930326015305e+02 0 0 0
2350 94 1 0.0000000000000000e+00 -8.1522730773825216e+01 -7.7956142798358570e+01 -1.0870126537837704e+02 0 0 0
4556 183 4 0.0000000000000000e+00 -3.3874312827176851e+01 -7.6548144333621153e+01 -1.0948194599606045e+02 0 0 0
3261 131 4 0.0000000000000000e+00 2.0724377474171511e+00 -7.7272021601117174e+01 -1.0592817567283066e+02 0 0 0
3262 131 4 0.0000000000000000e+00 7.0644547749364568e+00 -7.7556076644426767e+01 -1.1479574545255571e+02 0 0 0
4308 173 4 0.0000000000000000e+00 2.9741521888958118e+01 -1.6980287249131419e+02 -9.3303017045330691e+01 0 0 0
2170 87 2 0.0000000000000000e+00 2.8780699701171756e+01 -1.5719476750736564e+02 -9.6070528263125041e+01 0 0 0
1526 62 1 0.0000000000000000e+00 -5.3936769995053027e+01 -1.3560696770808215e+02 -9.7090915404229818e+01 0 0 0
4866 195 4 0.0000000000000000e+00 -3.1156923621127135e+01 -1.3582634385838989e+02 -9.8630541004725870e+01 0 0 0
842 34 2 0.0000000000000000e+00 -1.7657353146319426e+01 -1.3598471411833887e+02 -9.1008801509599181e+01 0 0 0
2172 87 2 0.0000000000000000e+00 2.9521441568626585e+01 -1.4596963992167596e+02 -9.5834662669172616e+01 0 0 0
1528 62 2 0.0000000000000000e+00 -6.6247462275878448e+01 -1.2101730131937573e+02 -9.7141639145748158e+01 0 0 0
1527 62 2 0.0000000000000000e+00 -6.0862451890759559e+01 -1.2860376341345579e+02 -9.4958784650341016e+01 0 0 0
4513 181 3 0.0000000000000000e+00 -3.9744712966102320e+01 -1.3329070155623222e+02 -9.3609362651818117e+01 0 0 0
4514 181 4 0.0000000000000000e+00 -4.4730983428051672e+01 -1.2569888002249144e+02 -9.7809550543255469e+01 0 0 0
4867 195 4 0.0000000000000000e+00 -2.5724497107854084e+01 -1.2786276366060503e+02 -9.6588400580220423e+01 0 0 0
844 34 1 0.0000000000000000e+00 -3.4128627691880162e+01 -1.2449966783427253e+02 -9.0316932507323813e+01 0 0 0
841 34 2 0.0000000000000000e+00 -1.3316245951121276e+01 -1.3212219530895064e+02 -9.9952600490766031e+01 0 0 0
4868 195 4 0.0000000000000000e+00 -1.8900362400270456e+01 -1.2142439420353199e+02 -9.2462884107196430e+01 0 0 0
4399 176 4 0.0000000000000000e+00 9.0648098298344877e+00 -1.2523427093253450e+02 -9.2962579505084079e+01 0 0 0
4474 179 4 0.0000000000000000e+00 -8.7089297505655423e+01 -1.0995562947578858e+02 -9.9561940572297530e+01 0 0 0
1537 62 2 0.0000000000000000e+00 -5.2434979847456177e+01 -1.1414949710682546e+02 -1.0042220497943545e+02 0 0 0
1529 62 2 0.0000000000000000e+00 -6.1987092395561881e+01 -1.1190862529328606e+02 -9.6306786724733740e+01 0 0 0
4515 181 4 0.0000000000000000e+00 -4.2923251202002710e+01 -1.1551025147835074e+02 -9.9123759121974473e+01 0 0 0
1538 62 1 0.0000000000000000e+00 -4.9692896140150566e+01 -1.1342198433925856e+02 -9.0415770561134337e+01 0 0 0
1838 74 1 0.0000000000000000e+00 -2.5311335497382260e+01 -1.1602843943793744e+02 -9.7468146266830075e+01 0 0 0
845 34 2 0.0000000000000000e+00 -3.6139374874759476e+01 -1.1475556172172433e+02 -8.8985458747488181e+01 0 0 0
4869 195 3 0.0000000000000000e+00 -1.6013988137384278e+01 -1.1213835824022760e+02 -9.1944878837629034e+01 0 0 0
4870 195 4 0.0000000000000000e+00 -7.6763667729686036e+00 -1.0790403507274804e+02 -9.6803807805747439e+01 0 0 0
2277 92 2 0.0000000000000000e+00 -1.5482693655239024e+02 -9.6866233210735615e+01 -9.6913753131008804e+01 0 0 0
2276 92 1 0.0000000000000000e+00 -1.4624410988172136e+02 -1.0042305698540451e+02 -9.2406987244960135e+01 0 0 0
4828 194 4 0.0000000000000000e+00 -1.2970363183548417e+02 -9.3972010960646472e+01 -9.9936448968207827e+01 0 0 0
4475 179 3 0.0000000000000000e+00 -8.8422804097282139e+01 -1.0309926784719107e+02 -9.1809350812129864e+01 0 0 0
4516 181 4 0.0000000000000000e+00 -4.6079831629563145e+01 -1.0590031613369804e+02 -1.0110497499056707e+02 0 0 0
4871 195 4 0.0000000000000000e+00 -1.0069324155101436e+01 -9.8261186064317457e+01 -9.5532673219370096e+01 0 0 0
670 27 2 0.0000000000000000e+00 1.5621963508542720e+01 -9.3404685786926777e+01 -8.9611315395981549e+01 0 0 0
4827 194 4 0.0000000000000000e+00 -1.3867469920537229e+02 -9.0747420010944495e+01 -9.7936443622431852e+01 0 0 0
4826 194 3 0.0000000000000000e+00 -1.4392446512937073e+02 -9.0739650904143431e+01 -8.9220374197959984e+01 0 0 0
4829 194 4 0.0000000000000000e+00 -1.2815235244168736e+02 -8.3941431034376748e+01 -9.9881731027118391e+01 0 0 0
4519 181 3 0.0000000000000000e+00 -5.1782753344240518e+01 -7.9531833804607956e+01 -1.0011779758352729e+02 0 0 0
4520 181 4 0.0000000000000000e+00 -5.7753583721611925e+01 -7.9858634309515338e+01 -9.1740317592918117e+01 0 0 0
1876 76 1 0.0000000000000000e+00 -4.2874977096084926e+01 -7.9679914139230092e+01 -9.3765018453464975e+01 0 0 0
4560 183 4 0.0000000000000000e+00 -2.6486466722717786e+01 -8.8600478620549225e+01 -8.9554522730890909e+01 0 0 0
4559 183 4 0.0000000000000000e+00 -2.4587098255064188e+01 -8.4247096496237802e+01 -9.8604704464329160e+01 0 0 0
1877 76 2 0.0000000000000000e+00 -3.5214503662034147e+01 -8.6024750605384924e+01 -9.1932315282716033e+01 0 0 0
4872 195 4 0.0000000000000000e+00 -9.9105211607365877e+00 -8.9511548416543604e+01 -9.2529566740544411e+01 0 0 0
4391 176 4 0.0000000000000000e+00 -2.8214788073790591e+00 -8.7932895046449687e+01 -9.9705712714786173e+01 0 0 0
4873 195 4 0.0000000000000000e+00 -5.4844682010805981e+00 -8.0161902958534910e+01 -9.2556485303159064e+01 0 0 0
4392 176 4 0.0000000000000000e+00 -9.3581671053678805e-01 -8.7807310557380347e+01 -8.9947348370079993e+01 0 0 0
669 27 1 0.0000000000000000e+00 1.9800230025412922e+01 -8.3804308086702918e+01 -9.1108534249535680e+01 0 0 0
3904 157 4 0.0000000000000000e+00 -1.7185144172628836e+02 -6.8057027104476873e+01 -8.8937145559387460e+01 0 0 0
3905 157 4 0.0000000000000000e+00 -1.6449741910973117e+02 -7.5347699527430265e+01 -8.8926310655259272e+01 0 0 0
2282 92 1 0.0000000000000000e+00 -1.3686118184740056e+02 -7.4469555819227708e+01 -1.0062072876304515e+02 0 0 0
4830 194 4 0.0000000000000000e+00 -1.2342232292682249e+02 -7.5105812119831540e+01 -9.9878124425341724e+01 0 0 0
4831 194 4 0.0000000000000000e+00 -1.1533767318767903e+02 -6.9822314945458885e+01 -1.0125486061733434e+02 0 0 0
3921 157 4 0.0000000000000000e+00 -1.1184001808901935e+02 -7.8481774141310396e+01 -9.5377162023593471e+01 0 0 0
3920 157 4 0.0000000000000000e+00 -1.0658091374929189e+02 -7.2166504257736918e+01 -8.9908025408503136e+01 0 0 0
1878 76 2 0.0000000000000000e+00 -2.9466893601542353e+01 -7.9247507338672136e+01 -8.8344712242467267e+01 0 0 0
3260 131 4 0.0000000000000000e+00 -3.3309750901298325e+00 -7.2608863468472620e+01 -9.9441937305868308e+01 0 0 0
3550 142 3 0.0000000000000000e+00 1.2276495091611398e+01 -7.5595471561362118e+01 -8.9969370077805166e+01 0 0 0
668 27 2 0.0000000000000000e+00 2.1194916832594817e+01 -7.5242980526082221e+01 -9.6399376715584452e+01 0 0 0
4510 181 4 0.0000000000000000e+00 -4.5990478150358811e+01 -1.5121373479590528e+02 -7.5216976589848528e+01 0 0 0
4511 181 4 0.0000000000000000e+00 -4.0960914517776978e+01 -1.4971462695813028e+02 -8.3621815130677589e+01 0 0 0
4305 173 4 0.0000000000000000e+00 2.6813086158546792e+01 -1.4856882525265249e+02 -8.3199154603914891e+01 0 0 0
4306 173 4 0.0000000000000000e+00 2.9038925657378396e+01 -1.5730052975041747e+02 -7.8353616033147787e+01 0 0 0
4512 181 4 0.0000000000000000e+00 -4.1722357599462036e+01 -1.3986484024323224e+02 -8.5676669701051850e+01 0 0 0
4304 173 4 0.0000000000000000e+00 2.7327042985581258e+01 -1.3902328944368671e+02 -8.4066562224518606e+01 0 0 0
843 34 2 0.0000000000000000e+00 -2.6582846781356160e+01 -1.3108622133331829e+02 -8.7043817400522386e+01 0 0 0
674 27 2 0.0000000000000000e+00 1.7709690729654355e+01 -1.2430709019796392e+02 -7.4212513604003178e+01 0 0 0
3912 157 4 0.0000000000000000e+00 -1.2453737042094974e+02 -1.0785296575725062e+02 -7.4498390802325716e+01 0 0 0
1539 62 2 0.0000000000000000e+00 -4.5821653241285091e+01 -1.1154591597802367e+02 -8.1662028174158792e+01 0 0 0
1836 74 2 0.0000000000000000e+00 -2.6627856656071984e+01 -1.1978697290820703e+02 -7.8032387858873392e+01 0 0 0
1837 74 2 0.0000000000000000e+00 -2.7277708269782369e+01 -1.1563912485169406e+02 -8.7303335724235737e+01 0 0 0
846 34 2 0.0000000000000000e+00 -3.5787804936277595e+01 -1.0682503198908084e+02 -8.4044606172414760e+01 0 0 0
4397 176 4 0.0000000000000000e+00 8.1400517016231733e-01 -1.1203875289079163e+02 -8.1618921535207107e+01 0 0 0
4398 176 4 0.0000000000000000e+00 7.0131718151611091e+00 -1.1758361372864876e+02 -8.7220831151400390e+01 0 0 0
672 27 2 0.0000000000000000e+00 2.6094736228845480e+01 -1.1071831765222599e+02 -8.6133090854986023e+01 0 0 0
673 27 2 0.0000000000000000e+00 2.1793699882551710e+01 -1.1596397369697735e+02 -7.8399799152679677e+01 0 0 0
3914 157 4 0.0000000000000000e+00 -1.0982018387314392e+02 -9.6952450271987871e+01 -7.9450538594566041e+01 0 0 0
3916 157 4 0.0000000000000000e+00 -9.3528092958756233e+01 -9.3124003916388261e+01 -8.7218288274811712e+01 0 0 0
3915 157 4 0.0000000000000000e+00 -1.0161221847609190e+02 -9.8124982729377663e+01 -8.5683709847350428e+01 0 0 0
4523 181 4 0.0000000000000000e+00 -4.3422484216803717e+01 -1.0135259949319487e+02 -7.9324569889822428e+01 0 0 0
847 34 2 0.0000000000000000e+00 -3.4697562695178270e+01 -9.7041800751391335e+01 -8.1972775626138258e+01 0 0 0
4562 183 4 0.0000000000000000e+00 -1.3901914282584196e+01 -9.6351085099032673e+01 -7.7701952600919171e+01 0 0 0
4563 183 3 0.0000000000000000e+00 -5.8820771014163000e+00 -1.0060708917203142e+02 -7.4177059446217513e+01 0 0 0
4396 176 4 0.0000000000000000e+00 4.5531658195954261e+00 -1.0318190186494272e+02 -7.9914846836050003e+01 0 0 0
4395 176 4 0.0000000000000000e+00 1.2059895002666039e+01 -9.6479563969990224e+01 -8.0698987748894311e+01 0 0 0
671 27 2 0.0000000000000000e+00 1.9506105993195959e+01 -1.0249056274453577e+02 -8.7555527195390098e+01 0 0 0
3906 157 4 0.0000000000000000e+00 -1.5626771456470351e+02 -8.0318697151843054e+01 -8.6145252709163714e+01 0 0 0
3907 157 3 0.0000000000000000e+00 -1.4696929166144309e+02 -8.2543490161593525e+01 -8.3170484393277377e+01 0 0 0
3909 157 4 0.0000000000000000e+00 -1.3263492309349022e+02 -8.6646583920362403e+01 -7.4031780106807517e+01 0 0 0
3917 157 4 0.0000000000000000e+00 -8.9223689892778907e+01 -8.3814977322899324e+01 -8.7093586941618398e+01 0 0 0
4521 181 4 0.0000000000000000e+00 -5.4158828269737526e+01 -8.5418914263703613e+01 -8.4006463968804525e+01 0 0 0
4522 181 4 0.0000000000000000e+00 -4.7857238450473488e+01 -9.2026320021937366e+01 -7.8681453541874077e+01 0 0 0
848 34 2 0.0000000000000000e+00 -3.1171986746451854e+01 -8.8069545777204127e+01 -8.0538340185082106e+01 0 0 0
849 34 2 0.0000000000000000e+00 -2.2234089280056967e+01 -8.5213161115089008e+01 -7.5869833976490568e+01 0 0 0
4561 183 4 0.0000000000000000e+00 -1.7767090976562848e+01 -8.9126108217428950e+01 -8.4239014058095961e+01 0 0 0
1880 76 2 0.0000000000000000e+00 -1.0628151119792513e+01 -8.1639187175827871e+01 -8.2604660329042815e+01 0 0 0
1881 76 2 0.0000000000000000e+00 -7.0848937838538424e+00 -8.8950293424195294e+01 -7.6763727363536674e+01 0 0 0
4393 176 4 0.0000000000000000e+00 7.2543754922186068e+00 -8.6716501978225054e+01 -8.4524652616615313e+01 0 0 0
4394 176 3 0.0000000000000000e+00 1.6719226773915857e+01 -8.7536399344466929e+01 -8.0863508796658479e+01 0 0 0
3902 157 4 0.0000000000000000e+00 -1.8937722308536775e+02 -6.6670082766900705e+01 -8.1084923589486564e+01 0 0 0
3901 157 3 0.0000000000000000e+00 -1.9821144246334396e+02 -6.8291542973636595e+01 -7.6358875130162872e+01 0 0 0
3908 157 4 0.0000000000000000e+00 -1.3857957530947596e+02 -7.9278072436341176e+01 -7.7900379982678601e+01 0 0 0
3919 157 3 0.0000000000000000e+00 -9.7615738226235578e+01 -6.8598339813701699e+01 -8.6936731733925612e+01 0 0 0
2290 92 2 0.0000000000000000e+00 -9.2867148738326051e+01 -6.8619039604328705e+01 -7.6650955836046350e+01 0 0 0
2291 92 2 0.0000000000000000e+00 -9.7324609331509095e+01 -7.6934568045265578e+01 -7.4251519586172378e+01 0 0 0
3918 157 4 0.0000000000000000e+00 -8.9258827052274086e+01 -7.3740785904579226e+01 -8.7376771423546884e+01 0 0 0
1879 76 2 0.0000000000000000e+00 -1.9998232399725186e+01 -7.8777619565202500e+01 -8.4590825923923802e+01 0 0 0
4874 195 4 0.0000000000000000e+00 -3.1089267944092884e+00 -7.3641755644964135e+01 -8.5607665832454956e+01 0 0 0
3549 142 4 0.0000000000000000e+00 7.0091384582544016e+00 -7.5300696779730927e+01 -8.1229814196422168e+01 0 0 0
353 15 2 0.0000000000000000e+00 2.3210701132932360e+01 -7.8645542163988480e+01 -7.6793189562144448e+01 0 0 0
352 15 2 0.0000000000000000e+00 1.6885482203846799e+01 -7.1141553402716156e+01 -7.5467080634743382e+01 0 0 0
4508 181 4 0.0000000000000000e+00 -5.2838701342096932e+01 -1.6512486322722791e+02 -6.4053781051978717e+01 0 0 0