LAMMPS data file via write_data, version 5 Jun 2019, timestep = 340000000

5000 atoms
4 atom types
5208 bonds
3 bond types
4600 angles
2 angle types

-5.0000000000000000e+02 5.0000000000000000e+02 xlo xhi
-5.0000000000000000e+02 5.0000000000000000e+02 ylo yhi
-5.0000000000000000e+02 5.0000000000000000e+02 zlo zhi

Masses

1 1000
2 1000
3 1000
4 1000

Pair Coeffs # lj/cut

1 0.18 10
2 0.18 10
3 0.18 10
4 0.18 10

Bond Coeffs # harmonic

1 3 10
2 3 10
3 1.8 11.22

Angle Coeffs # cosine

1 2
2 2

Atoms # full

2131 86 2 0.0000000000000000e+00 -1.1188468091399869e+01 2.2710429881929748e+01 -3.0102308187705728e+02 0 0 0
2132 86 1 0.0000000000000000e+00 -1.9226424164238860e+01 2.5265375931693118e+01 -3.0610826039380220e+02 0 0 0
2133 86 2 0.0000000000000000e+00 -2.1408658544427286e+01 3.5270816981541536e+01 -3.0528528087209787e+02 0 0 0
2134 86 2 0.0000000000000000e+00 -2.5247523122129447e+01 4.4832697234262859e+01 -3.0465564676240899e+02 0 0 0
2130 86 2 0.0000000000000000e+00 -9.2867709107875633e+00 1.6292349847635698e+01 -2.9342505202545544e+02 0 0 0
2135 86 2 0.0000000000000000e+00 -2.9114718597135674e+01 4.9513988672180922e+01 -2.9666845521952541e+02 0 0 0
2136 86 2 0.0000000000000000e+00 -2.5908252372800032e+01 5.0262479822157943e+01 -2.8719644214262865e+02 0 0 0
3902 157 4 0.0000000000000000e+00 -1.2729066112373884e+01 3.8289197654384111e+01 -2.9222374408939902e+02 0 0 0
3901 157 3 0.0000000000000000e+00 -1.3498549964354542e+01 4.8299141720590654e+01 -2.9348481624410954e+02 0 0 0
2129 86 2 0.0000000000000000e+00 -1.1048080663293742e+01 1.2037011847627326e+01 -2.8380616639835819e+02 0 0 0
2128 86 2 0.0000000000000000e+00 -2.9552606209460373e+00 1.4119277689210053e+01 -2.7843573615042521e+02 0 0 0
2127 86 2 0.0000000000000000e+00 5.8884206354303004e+00 1.8281043651661417e+01 -2.7499078225109662e+02 0 0 0
3903 157 4 0.0000000000000000e+00 -1.8363946159674860e+01 3.4847848141122107e+01 -2.8439056752254811e+02 0 0 0
3904 157 4 0.0000000000000000e+00 -1.5555531578862322e+01 3.2830758891843800e+01 -2.7525309127124098e+02 0 0 0
2139 86 2 0.0000000000000000e+00 -8.2029481850703032e+00 4.0268353545620577e+01 -2.7798304530705792e+02 0 0 0
2138 86 1 0.0000000000000000e+00 -8.2457246643296607e+00 4.9508212044363461e+01 -2.8317026194008088e+02 0 0 0
2140 86 2 0.0000000000000000e+00 1.0540135386598746e+00 3.7879519374588696e+01 -2.7453812296564416e+02 0 0 0
2244 90 1 0.0000000000000000e+00 7.7092172988680581e+00 -3.1521285274167273e+01 -2.5969217540482623e+02 0 0 0
3905 157 4 0.0000000000000000e+00 -9.0443540719867226e+00 3.0684879786675609e+01 -2.6841699340923873e+02 0 0 0
3906 157 4 0.0000000000000000e+00 -2.3619791166969226e+00 2.9363139723826688e+01 -2.6052750211186526e+02 0 0 0
3907 157 3 0.0000000000000000e+00 6.8155691802659142e+00 2.5030858443593441e+01 -2.5836467301906589e+02 0 0 0
2141 86 2 0.0000000000000000e+00 7.5130927510603920e+00 4.2088194198543178e+01 -2.6803101244402080e+02 0 0 0
2243 90 2 0.0000000000000000e+00 1.1404508113510412e+01 -4.0933751903625016e+01 -2.5715182582089568e+02 0 0 0
3175 127 3 0.0000000000000000e+00 -8.2663507209423912e+01 -1.8280083199326032e+01 -2.5619192724181215e+02 0 0 0
3174 127 4 0.0000000000000000e+00 -7.3646805001740248e+01 -1.8923806749339946e+01 -2.5251035236540974e+02 0 0 0
2247 90 2 0.0000000000000000e+00 -1.7223252743792216e+01 -2.2494685606341733e+01 -2.4727038474735244e+02 0 0 0
2248 90 2 0.0000000000000000e+00 -2.7185015940086654e+01 -2.4823385082761508e+01 -2.4916434320726100e+02 0 0 0
2246 90 2 0.0000000000000000e+00 -8.4796837107841014e+00 -2.2407734560601885e+01 -2.5306046022964603e+02 0 0 0
2245 90 2 0.0000000000000000e+00 4.6294232453244870e-02 -2.6765092383778558e+01 -2.5479828947342114e+02 0 0 0
3173 127 4 0.0000000000000000e+00 -6.4774339370386443e+01 -1.7430516513167756e+01 -2.4833797731047613e+02 0 0 0
3172 127 4 0.0000000000000000e+00 -5.4398109133660896e+01 -1.7601279818653506e+01 -2.4685567750338109e+02 0 0 0
3151 127 3 0.0000000000000000e+00 -9.4324583512515446e+01 -3.6385378295626701e+01 -2.3559112481402894e+02 0 0 0
2250 90 1 0.0000000000000000e+00 -3.0785448549798843e+01 -3.2060496861768421e+01 -2.3151110227559283e+02 0 0 0
3152 127 4 0.0000000000000000e+00 -8.6289339270959516e+01 -3.0736519131402673e+01 -2.3366241085749127e+02 0 0 0
3171 127 4 0.0000000000000000e+00 -5.3495493080380271e+01 -2.3094857467376126e+01 -2.3823523933075228e+02 0 0 0
3170 127 4 0.0000000000000000e+00 -4.6727988658798076e+01 -3.0199563979484495e+01 -2.3714820890878715e+02 0 0 0
2249 90 2 0.0000000000000000e+00 -3.1270627050121714e+01 -2.7615532743663184e+01 -2.4025879703575490e+02 0 0 0
3159 127 4 0.0000000000000000e+00 -4.2113628365401240e+01 -1.8508828855407724e+01 -2.3353457687173224e+02 0 0 0
3157 127 3 0.0000000000000000e+00 -5.7377352939151599e+01 -5.9332480813429074e+00 -2.3323321340178924e+02 0 0 0
3156 127 4 0.0000000000000000e+00 -6.7010026010294538e+01 -4.5548478031803716e+00 -2.3463273144456505e+02 0 0 0
3158 127 4 0.0000000000000000e+00 -4.8337001088694969e+01 -1.0143450500381492e+01 -2.3313576080702663e+02 0 0 0
2147 86 2 0.0000000000000000e+00 1.1468787327226948e+01 2.8579051636736534e+00 -2.3943985790142966e+02 0 0 0
2146 86 2 0.0000000000000000e+00 8.3191552960115249e+00 1.1994025877035721e+01 -2.4277188072420159e+02 0 0 0
2025 81 1 0.0000000000000000e+00 -9.4866013119661417e+01 -4.5895967356094758e+01 -2.2966156513747609e+02 0 0 0
2024 81 2 0.0000000000000000e+00 -8.5895749417355674e+01 -4.1555258530681584e+01 -2.2994173379081039e+02 0 0 0
2023 81 2 0.0000000000000000e+00 -7.7741704222067426e+01 -3.5640203687599396e+01 -2.2983907948777897e+02 0 0 0
3168 127 4 0.0000000000000000e+00 -4.5542864252890794e+01 -4.4129098348973081e+01 -2.2497778247865310e+02 0 0 0
3169 127 3 0.0000000000000000e+00 -4.1901949220168937e+01 -3.6560217342748452e+01 -2.3051980614556825e+02 0 0 0
3163 127 3 0.0000000000000000e+00 -2.4522783901999624e+01 -3.9751090125797859e+01 -2.2085803964829225e+02 0 0 0
4903 197 4 0.0000000000000000e+00 8.3469028765971232e-01 -3.2604033821225862e+01 -2.2256554757090811e+02 0 0 0
3153 127 4 0.0000000000000000e+00 -8.6363352635313390e+01 -2.1729100601105667e+01 -2.2873302623948032e+02 0 0 0
2022 81 2 0.0000000000000000e+00 -7.4138150438244793e+01 -2.7228189320055922e+01 -2.2599597044085715e+02 0 0 0
3160 127 4 0.0000000000000000e+00 -3.5068204732030985e+01 -2.3377580953240468e+01 -2.2780628268248924e+02 0 0 0
3162 127 4 0.0000000000000000e+00 -2.1427115595482821e+01 -3.0253551168130048e+01 -2.2275691344305721e+02 0 0 0
3161 127 4 0.0000000000000000e+00 -2.5266362468817075e+01 -2.2170775598976949e+01 -2.2786649056900808e+02 0 0 0
4904 197 4 0.0000000000000000e+00 9.9035546750455428e+00 -3.1561168067956547e+01 -2.2634803954064429e+02 0 0 0
2005 81 2 0.0000000000000000e+00 5.3400670192190907e+00 -1.9420445820158598e+01 -2.2791513096847754e+02 0 0 0
3154 127 4 0.0000000000000000e+00 -8.1991450584399232e+01 -1.2411238424171945e+01 -2.2742522008194513e+02 0 0 0
3155 127 4 0.0000000000000000e+00 -7.3954607272579850e+01 -6.1397088082476969e+00 -2.2797072046990550e+02 0 0 0
2009 81 2 0.0000000000000000e+00 -2.8524352151656384e+01 -1.3527485341545439e+01 -2.2100000363114847e+02 0 0 0
2008 81 2 0.0000000000000000e+00 -1.9021257912631413e+01 -1.3143830009504589e+01 -2.2352772586768680e+02 0 0 0
2007 81 1 0.0000000000000000e+00 -9.1621643147801173e+00 -1.5021794731894184e+01 -2.2402826612952612e+02 0 0 0
2006 81 2 0.0000000000000000e+00 -5.4056954271131497e-01 -1.1514227405890519e+01 -2.2799533610275566e+02 0 0 0
2014 81 2 0.0000000000000000e+00 -6.8793368506358135e+01 6.3966590011726501e+00 -2.2757183945048865e+02 0 0 0
2013 81 1 0.0000000000000000e+00 -6.0929864997129044e+01 1.0352402161557803e+00 -2.2583556935965785e+02 0 0 0
2012 81 2 0.0000000000000000e+00 -5.2139970116071488e+01 -3.5763966142527432e+00 -2.2460870883653823e+02 0 0 0
2015 81 2 0.0000000000000000e+00 -6.8022659029881424e+01 1.2741985003156275e+01 -2.2061867307404347e+02 0 0 0
3167 127 4 0.0000000000000000e+00 -4.8669785202114781e+01 -4.7018979255931022e+01 -2.1596940773107289e+02 0 0 0
3166 127 4 0.0000000000000000e+00 -4.0596756264569322e+01 -4.7028615945482599e+01 -2.0968527682129655e+02 0 0 0
4897 196 4 0.0000000000000000e+00 -5.8109959925854781e+01 -4.1281170596208078e+01 -2.1614061476500973e+02 0 0 0
4896 196 4 0.0000000000000000e+00 -6.7222092698606005e+01 -3.6821168291052075e+01 -2.1604971290057949e+02 0 0 0
4898 196 4 0.0000000000000000e+00 -5.1700051086595394e+01 -3.3249940034927384e+01 -2.1649726682630390e+02 0 0 0
3164 127 4 0.0000000000000000e+00 -2.6661732344676366e+01 -4.3795825753432688e+01 -2.1149817238634105e+02 0 0 0
2021 81 2 0.0000000000000000e+00 -7.3406934186314047e+01 -2.2181876673581890e+01 -2.1703089182552549e+02 0 0 0
4895 196 4 0.0000000000000000e+00 -6.7023666025491835e+01 -3.0993448667960998e+01 -2.0818781369484660e+02 0 0 0
4899 196 4 0.0000000000000000e+00 -4.5937648334318716e+01 -2.5702795454445560e+01 -2.1401766349083289e+02 0 0 0
4900 196 3 0.0000000000000000e+00 -3.9038633783875262e+01 -1.9590678568157230e+01 -2.0897929585630249e+02 0 0 0
4902 197 4 0.0000000000000000e+00 -3.3616375826402338e+00 -2.6415023582493586e+01 -2.1626536270030601e+02 0 0 0
4901 197 3 0.0000000000000000e+00 -1.0976319602214822e+01 -2.0512569945530689e+01 -2.1495745004124007e+02 0 0 0
2020 81 2 0.0000000000000000e+00 -7.0617125593109265e+01 -1.7172210843569978e+01 -2.0846413952336877e+02 0 0 0
2019 81 1 0.0000000000000000e+00 -6.0067910808081308e+01 -1.5951997120163055e+01 -2.0525832134406352e+02 0 0 0
2011 81 2 0.0000000000000000e+00 -4.6085211081956352e+01 -7.3662702327306491e+00 -2.1732600183579353e+02 0 0 0
2010 81 2 0.0000000000000000e+00 -3.6644109058779449e+01 -9.3763836188082834e+00 -2.1578198932080278e+02 0 0 0
2016 81 2 0.0000000000000000e+00 -6.6161337096008012e+01 6.9377016765858279e+00 -2.1213797406382199e+02 0 0 0
2017 81 2 0.0000000000000000e+00 -6.2368943638827801e+01 3.0397853064269964e-01 -2.0505627095056153e+02 0 0 0
3165 127 4 0.0000000000000000e+00 -3.2749559462600509e+01 -4.7143329706159051e+01 -2.0395712299505308e+02 0 0 0
259 11 2 0.0000000000000000e+00 -1.6854542703671203e+01 -3.8979950658784823e+01 -1.9452843298763725e+02 0 0 0
260 11 2 0.0000000000000000e+00 -2.4262636922043431e+01 -3.2820758095809218e+01 -1.9770566703360646e+02 0 0 0
4894 196 3 0.0000000000000000e+00 -6.1198485158192923e+01 -2.6113361074117055e+01 -2.0064077693402277e+02 0 0 0
4893 196 4 0.0000000000000000e+00 -6.5109871663704098e+01 -2.2808250715229807e+01 -1.9223484700948953e+02 0 0 0
261 11 2 0.0000000000000000e+00 -3.2383107734211002e+01 -2.6606493674258545e+01 -1.9694658695767768e+02 0 0 0
262 11 2 0.0000000000000000e+00 -3.7960070806505414e+01 -1.8203982492685196e+01 -1.9843463314089939e+02 0 0 0
2018 81 2 0.0000000000000000e+00 -6.2260243494229179e+01 -7.6141664357208363e+00 -1.9913668261557800e+02 0 0 0
263 11 1 0.0000000000000000e+00 -3.8067501439927597e+01 -9.5206704479169115e+00 -2.0375660166726723e+02 0 0 0
3711 149 4 0.0000000000000000e+00 -7.1508315183837951e+01 7.2194859553497528e+00 -1.9193945584696556e+02 0 0 0
264 11 2 0.0000000000000000e+00 -4.4763398212004503e+01 -1.3751913538872516e+00 -2.0314267948634964e+02 0 0 0
265 11 2 0.0000000000000000e+00 -4.9400476902039635e+01 7.7767714039441316e+00 -2.0070224492202894e+02 0 0 0
266 11 2 0.0000000000000000e+00 -4.7650158363759935e+01 1.4180769928333198e+01 -1.9272157326506573e+02 0 0 0
4062 163 4 0.0000000000000000e+00 -7.7977575545302287e+01 4.8257459695177452e+01 -1.9098407252430496e+02 0 0 0
255 11 2 0.0000000000000000e+00 5.9381311748200272e+00 -6.6011100776186595e+01 -1.8860953059978718e+02 0 0 0
258 11 2 0.0000000000000000e+00 -1.2059310400581163e+01 -4.6240808028355765e+01 -1.8947252168377725e+02 0 0 0
257 11 1 0.0000000000000000e+00 -8.3140230633110335e+00 -5.4846235214202750e+01 -1.8842684719807801e+02 0 0 0
256 11 2 0.0000000000000000e+00 1.2964045403513194e+00 -5.7694505675039920e+01 -1.8713402955786546e+02 0 0 0
3716 149 4 0.0000000000000000e+00 -6.7671665597020720e+01 -3.2589859586895798e+01 -1.8296209118609553e+02 0 0 0
4400 176 3 0.0000000000000000e+00 3.7457436767348775e+00 -4.2647892012658467e+01 -1.8043544529771444e+02 0 0 0
3714 149 4 0.0000000000000000e+00 -8.0306199098661452e+01 -1.8574067399558949e+01 -1.8805658387814330e+02 0 0 0
3715 149 4 0.0000000000000000e+00 -7.5539826488207396e+01 -2.6869904723392246e+01 -1.8413266979406632e+02 0 0 0
4892 196 4 0.0000000000000000e+00 -6.8796777785551328e+01 -2.0158247874233901e+01 -1.8311283320444122e+02 0 0 0
3713 149 3 0.0000000000000000e+00 -8.0235202993605796e+01 -8.5655228331043283e+00 -1.8639471058774160e+02 0 0 0
3712 149 4 0.0000000000000000e+00 -7.8741646384555295e+01 2.9985821465042911e-01 -1.8935462393234684e+02 0 0 0
2469 99 1 0.0000000000000000e+00 -7.6191123059092646e+01 -1.6364526534103334e+00 -1.7765975358668877e+02 0 0 0
2468 99 2 0.0000000000000000e+00 -7.7753693355468513e+01 7.1593850444936749e+00 -1.8212083032238823e+02 0 0 0
3710 149 4 0.0000000000000000e+00 -6.5854273695686231e+01 6.7346808575961337e+00 -1.8297707313883751e+02 0 0 0
606 25 2 0.0000000000000000e+00 8.7895285911706083e+00 2.0535110952067148e+00 -1.7762656936335236e+02 0 0 0
2467 99 2 0.0000000000000000e+00 -7.5798766581872755e+01 1.6668283962331426e+01 -1.8348826863963973e+02 0 0 0
2466 99 2 0.0000000000000000e+00 -6.8485837634370213e+01 2.3252300473993930e+01 -1.8539790037618519e+02 0 0 0
267 11 2 0.0000000000000000e+00 -4.4157569833241624e+01 2.0742903265235118e+01 -1.8623588208087375e+02 0 0 0
2465 99 2 0.0000000000000000e+00 -6.3195112397189710e+01 3.2026955950158843e+01 -1.8392926100040992e+02 0 0 0
268 11 2 0.0000000000000000e+00 -3.6862472684447013e+01 2.5414980788992281e+01 -1.8050693563083752e+02 0 0 0
93 4 2 0.0000000000000000e+00 9.4163305652212657e+00 3.2862039243662586e+01 -1.8009350433564836e+02 0 0 0
92 4 2 0.0000000000000000e+00 4.8380229062114388e+00 3.3648170652819715e+01 -1.8921482917407863e+02 0 0 0
494 20 1 0.0000000000000000e+00 -7.7589879973584246e+01 4.3681579051987363e+01 -1.7917407285766018e+02 0 0 0
2464 99 2 0.0000000000000000e+00 -6.2364772215148555e+01 4.1660497544470509e+01 -1.8575413681739934e+02 0 0 0
4064 163 4 0.0000000000000000e+00 -6.4164795759527763e+01 4.9061420147114461e+01 -1.7833457188592882e+02 0 0 0
2463 99 1 0.0000000000000000e+00 -5.4900572533968941e+01 4.8520333707773077e+01 -1.8642144990213484e+02 0 0 0
4876 196 3 0.0000000000000000e+00 -1.0403698125837921e+02 -5.1585090413354806e+01 -1.6884554754829972e+02 0 0 0
4398 176 4 0.0000000000000000e+00 -4.0157361164663659e+00 -4.6405757074607408e+01 -1.6525259536089004e+02 0 0 0
4877 196 4 0.0000000000000000e+00 -1.0861778354843979e+02 -4.3476848034046377e+01 -1.7211468131944892e+02 0 0 0
4878 196 4 0.0000000000000000e+00 -1.0708022899551182e+02 -3.4464744670942110e+01 -1.7676558986841945e+02 0 0 0
4879 196 4 0.0000000000000000e+00 -1.0580858985269526e+02 -3.1862856874208219e+01 -1.6690837432375929e+02 0 0 0
3717 149 4 0.0000000000000000e+00 -6.9574998324981379e+01 -3.9175295250914481e+01 -1.7662274711189002e+02 0 0 0
3718 149 4 0.0000000000000000e+00 -7.6053386245064985e+01 -4.2310810454466854e+01 -1.6975703689424540e+02 0 0 0
4399 176 4 0.0000000000000000e+00 -5.0514575446074224e+00 -4.3403417013187195e+01 -1.7497656461929492e+02 0 0 0
2471 99 2 0.0000000000000000e+00 -8.3880201432570701e+01 -1.8568354514657035e+01 -1.7207197876371757e+02 0 0 0
4890 196 4 0.0000000000000000e+00 -7.0629847159021779e+01 -2.4399012765836751e+01 -1.6398520197470592e+02 0 0 0
4891 196 4 0.0000000000000000e+00 -6.8844469044358604e+01 -2.1492032733665795e+01 -1.7365366932566968e+02 0 0 0
603 25 2 0.0000000000000000e+00 9.2986620022268891e+00 -2.3358979137434147e+01 -1.6978797156527514e+02 0 0 0
2470 99 2 0.0000000000000000e+00 -7.7683527121948728e+01 -1.0655404361138686e+01 -1.7390071671558906e+02 0 0 0
604 25 2 0.0000000000000000e+00 8.0959886251106479e+00 -1.3670049435843017e+01 -1.6878580952152734e+02 0 0 0
3707 149 3 0.0000000000000000e+00 -8.7532401451685701e+01 4.4279802804264916e+00 -1.6493373566124114e+02 0 0 0
3708 149 4 0.0000000000000000e+00 -7.9072627531876677e+01 5.6533864845160879e+00 -1.7010329263678116e+02 0 0 0
3709 149 4 0.0000000000000000e+00 -7.0579531329055683e+01 8.5565362769987114e+00 -1.7414590612221900e+02 0 0 0
605 25 2 0.0000000000000000e+00 1.0609075315912703e+01 -3.8091895710284418e+00 -1.7010878219557202e+02 0 0 0
976 40 1 0.0000000000000000e+00 -8.4507208600197544e+01 1.4157039580106778e+01 -1.6987443389531734e+02 0 0 0
496 20 2 0.0000000000000000e+00 -6.7834786990968652e+01 2.9500018421231360e+01 -1.7022749388284058e+02 0 0 0
2700 108 3 0.0000000000000000e+00 -4.6889306015788584e+01 3.4710377823204482e+01 -1.7420647349383532e+02 0 0 0
2699 108 4 0.0000000000000000e+00 -4.2679952789467173e+01 2.6968897793078252e+01 -1.6895216133678554e+02 0 0 0
269 11 1 0.0000000000000000e+00 -3.5304491103481269e+01 3.4584877215226108e+01 -1.7546316961271353e+02 0 0 0
2698 108 4 0.0000000000000000e+00 -3.3984409824224109e+01 3.0139706116125943e+01 -1.6434068652984845e+02 0 0 0
4779 192 4 0.0000000000000000e+00 7.1295777735990240e-01 3.2181037278172859e+01 -1.6567739611439131e+02 0 0 0
495 20 2 0.0000000000000000e+00 -7.2479483782564685e+01 3.7986881991202047e+01 -1.7264275374237147e+02 0 0 0
4065 163 4 0.0000000000000000e+00 -5.6889124755162484e+01 4.2621433163785582e+01 -1.7542444563448797e+02 0 0 0
4066 163 4 0.0000000000000000e+00 -5.4524750636969713e+01 4.3389507419851817e+01 -1.6543988435627421e+02 0 0 0
270 11 2 0.0000000000000000e+00 -3.2156335015455667e+01 4.0111193590100385e+01 -1.6734682761780314e+02 0 0 0
3719 149 3 0.0000000000000000e+00 -8.0671840655258364e+01 -4.8329100415617411e+01 -1.6294726832456331e+02 0 0 0
3720 149 4 0.0000000000000000e+00 -8.2294813765635610e+01 -4.9678978936371017e+01 -1.5360595490046538e+02 0 0 0
4397 176 4 0.0000000000000000e+00 -3.0632487418969325e+00 -4.9257994720502452e+01 -1.5493829416068627e+02 0 0 0
4390 176 4 0.0000000000000000e+00 1.0658215527318280e+01 -5.2699694361677885e+01 -1.5282820159692625e+02 0 0 0
1529 62 2 0.0000000000000000e+00 -1.2752337668311222e+02 -4.1860304363187488e+01 -1.5273275200690088e+02 0 0 0
2475 99 1 0.0000000000000000e+00 -1.0567138990070505e+02 -4.3562013595728480e+01 -1.6158816181921395e+02 0 0 0
2474 99 2 0.0000000000000000e+00 -9.7646180240874941e+01 -3.8209986855102748e+01 -1.6219756691780970e+02 0 0 0
4392 176 4 0.0000000000000000e+00 1.0639942761268594e+01 -3.2491272022294815e+01 -1.5292085951708549e+02 0 0 0
4391 176 4 0.0000000000000000e+00 1.0241302848118098e+01 -4.2393778460546784e+01 -1.5226937543276119e+02 0 0 0
4880 196 4 0.0000000000000000e+00 -1.0679452084007454e+02 -3.0554920007885137e+01 -1.5656331323653995e+02 0 0 0
2472 99 2 0.0000000000000000e+00 -8.5722274072814756e+01 -2.2377465813592849e+01 -1.6270197486497892e+02 0 0 0
2473 99 2 0.0000000000000000e+00 -9.3267035419646291e+01 -2.9729145419856376e+01 -1.6011492847190289e+02 0 0 0
4888 196 3 0.0000000000000000e+00 -8.2735814163093238e+01 -2.8362375473956178e+01 -1.5080886854397829e+02 0 0 0
4889 196 4 0.0000000000000000e+00 -7.6192710674216244e+01 -2.2418536900624030e+01 -1.5583686987956131e+02 0 0 0
4394 176 3 0.0000000000000000e+00 -3.9748234907152016e+00 -3.1401683976010972e+01 -1.5295522088800172e+02 0 0 0
4393 176 4 0.0000000000000000e+00 3.9382301107862006e+00 -2.5514613963514364e+01 -1.5498777032477358e+02 0 0 0
3704 149 4 0.0000000000000000e+00 -9.4791374332324352e+01 -7.2333610515928077e+00 -1.5187810120903953e+02 0 0 0
3705 149 4 0.0000000000000000e+00 -1.0003149181089769e+02 1.3254349161218439e+00 -1.5349610552852027e+02 0 0 0
3706 149 4 0.0000000000000000e+00 -9.1102018988472352e+01 4.5608059337544242e+00 -1.5550311506977164e+02 0 0 0
977 40 2 0.0000000000000000e+00 -8.5975936540864566e+01 2.0849367579705739e+01 -1.6214166111878635e+02 0 0 0
4782 192 3 0.0000000000000000e+00 -4.5362071829905073e+00 1.8053888045967241e+01 -1.5151058381725863e+02 0 0 0
4781 192 4 0.0000000000000000e+00 -1.0414913876590385e+01 2.2851173398942151e+01 -1.5770228980620200e+02 0 0 0
978 40 2 0.0000000000000000e+00 -8.6223698838748561e+01 2.5043125619038147e+01 -1.5287508248016479e+02 0 0 0
497 20 2 0.0000000000000000e+00 -6.2316058442315700e+01 2.8767572977507115e+01 -1.6225533936126831e+02 0 0 0
498 20 2 0.0000000000000000e+00 -6.3016886488704237e+01 3.0188070855822751e+01 -1.5208930691921447e+02 0 0 0
2697 108 4 0.0000000000000000e+00 -2.5730908039895180e+01 3.4425442957753425e+01 -1.6185831144970007e+02 0 0 0
4780 192 4 0.0000000000000000e+00 -9.0927828325540876e+00 3.0538563685144840e+01 -1.6360333436540108e+02 0 0 0
4778 192 4 0.0000000000000000e+00 5.9896818116402750e+00 3.0604201895402316e+01 -1.5700925182137701e+02 0 0 0
4067 163 4 0.0000000000000000e+00 -5.0125905353479268e+01 4.2800259107141741e+01 -1.5586334240114141e+02 0 0 0
271 11 2 0.0000000000000000e+00 -3.2792183229591210e+01 4.1804048619100108e+01 -1.5741476066972842e+02 0 0 0
272 11 2 0.0000000000000000e+00 -2.9914004348396748e+01 4.9553043221121044e+01 -1.5064205571728485e+02 0 0 0
2696 108 4 0.0000000000000000e+00 -2.0119578672543483e+01 3.7769769701969999e+01 -1.5415251400393444e+02 0 0 0
95 4 2 0.0000000000000000e+00 9.4892586445948002e+00 4.0476773726861410e+01 -1.6295626802678069e+02 0 0 0
4387 176 4 0.0000000000000000e+00 -2.3899442775395991e+00 -7.0374300871636137e+01 -1.4244989864677575e+02 0 0 0
4388 176 3 0.0000000000000000e+00 4.6319417596643833e+00 -6.5734640885813064e+01 -1.4873794500316538e+02 0 0 0
1530 62 2 0.0000000000000000e+00 -1.2979842574415295e+02 -5.0454241922156136e+01 -1.4913287878941605e+02 0 0 0
1531 62 2 0.0000000000000000e+00 -1.2464132229709101e+02 -5.1717622115791173e+01 -1.4069672732950156e+02 0 0 0
4885 196 4 0.0000000000000000e+00 -1.0206896397914747e+02 -4.9713237597242419e+01 -1.5001456147075243e+02 0 0 0
4884 196 4 0.0000000000000000e+00 -1.0924177502699629e+02 -5.2559725356738717e+01 -1.4302161706695097e+02 0 0 0
3721 149 4 0.0000000000000000e+00 -8.5794039166379051e+01 -5.0878937964308804e+01 -1.4423664364297250e+02 0 0 0
4396 176 4 0.0000000000000000e+00 -4.5220703035598628e+00 -4.9142620598976656e+01 -1.4507884451592503e+02 0 0 0
1431 58 2 0.0000000000000000e+00 8.2284386991206908e+00 -5.7123312157630870e+01 -1.4132576819814545e+02 0 0 0
1528 62 2 0.0000000000000000e+00 -1.2462083303427956e+02 -3.5959779633661931e+01 -1.4522585649512487e+02 0 0 0
1527 62 2 0.0000000000000000e+00 -1.1788696831313527e+02 -3.3185751672594179e+01 -1.3855347079494371e+02 0 0 0
4886 196 4 0.0000000000000000e+00 -9.8113620753209403e+01 -4.0219907782621632e+01 -1.4960528571882543e+02 0 0 0
4882 196 3 0.0000000000000000e+00 -1.0861119905286436e+02 -3.9328463538036914e+01 -1.3840404362155076e+02 0 0 0
4881 196 4 0.0000000000000000e+00 -1.0858377805101222e+02 -3.4502122984944762e+01 -1.4712829111796759e+02 0 0 0
4887 196 4 0.0000000000000000e+00 -8.8820781602676448e+01 -3.6244322151040933e+01 -1.4880775498700524e+02 0 0 0
3722 149 4 0.0000000000000000e+00 -8.8929468171313246e+01 -4.2224053049335566e+01 -1.3947905084076652e+02 0 0 0
4395 176 4 0.0000000000000000e+00 -3.9399018830097172e+00 -4.0096043157391030e+01 -1.4884746887783265e+02 0 0 0
3702 149 4 0.0000000000000000e+00 -8.0930267117698492e+01 -1.8515246377691994e+01 -1.4236574968625965e+02 0 0 0
3703 149 4 0.0000000000000000e+00 -8.6688394558902345e+01 -1.0864363285402556e+01 -1.4669803127986413e+02 0 0 0
4784 192 4 0.0000000000000000e+00 1.9219844267634696e+00 9.4613645010680294e+00 -1.3886344319084984e+02 0 0 0
4785 192 4 0.0000000000000000e+00 1.0247301645237586e+01 4.1015183551457435e+00 -1.3878921440188071e+02 0 0 0
979 40 2 0.0000000000000000e+00 -7.8927650347657234e+01 2.2572648935116529e+01 -1.4652978325335405e+02 0 0 0
4783 192 4 0.0000000000000000e+00 -5.5541101128282566e+00 1.5201502804497832e+01 -1.4253513130488537e+02 0 0 0
980 40 2 0.0000000000000000e+00 -7.0964774733519647e+01 2.8796370398467555e+01 -1.4543323081411012e+02 0 0 0
499 20 2 0.0000000000000000e+00 -6.0794894581316363e+01 2.6441369907362937e+01 -1.4337143220139373e+02 0 0 0
500 20 1 0.0000000000000000e+00 -5.1173881050355703e+01 2.6467943157876977e+01 -1.3967026891454159e+02 0 0 0
2693 108 4 0.0000000000000000e+00 -2.8398546106785947e+00 2.9793460215236301e+01 -1.4179414273293770e+02 0 0 0
2694 108 3 0.0000000000000000e+00 -9.6059686360357919e+00 3.6535620749747828e+01 -1.3906730837665739e+02 0 0 0
2692 108 4 0.0000000000000000e+00 5.1077068409470314e+00 2.5306971111037203e+01 -1.4700100746232695e+02 0 0 0
4777 192 4 0.0000000000000000e+00 6.3639776126537297e+00 3.6483818459183070e+01 -1.4894462636360151e+02 0 0 0
2901 117 3 0.0000000000000000e+00 -8.1535138938920355e+01 4.4537739510485764e+01 -1.4916635741265085e+02 0 0 0
982 40 1 0.0000000000000000e+00 -7.1458720587103542e+01 4.6377372189053347e+01 -1.4493345484263509e+02 0 0 0
981 40 2 0.0000000000000000e+00 -6.6924037798212808e+01 3.7649164773604632e+01 -1.4333781232955110e+02 0 0 0
983 40 2 0.0000000000000000e+00 -6.3379533340156172e+01 4.9101437004205785e+01 -1.4077026669958906e+02 0 0 0
4068 163 4 0.0000000000000000e+00 -4.8511995361855369e+01 4.1871557803873152e+01 -1.4595290670535431e+02 0 0 0
2695 108 4 0.0000000000000000e+00 -1.3698511791399186e+01 4.2235176125363296e+01 -1.4725848019453315e+02 0 0 0
4776 192 3 0.0000000000000000e+00 7.7140036803776688e+00 4.6330603870907090e+01 -1.4784459335354887e+02 0 0 0
1125 45 1 0.0000000000000000e+00 3.5293083232439293e+00 5.0475978487348854e+01 -1.3732493070646976e+02 0 0 0
1459 59 2 0.0000000000000000e+00 8.7720877390300451e+00 -1.3548939809322528e+02 -1.2933716023286516e+02 0 0 0
4385 176 4 0.0000000000000000e+00 -1.5930862536476255e+01 -7.4351303631909914e+01 -1.2771448667457649e+02 0 0 0
4386 176 4 0.0000000000000000e+00 -9.6461336885132436e+00 -7.4138732887609279e+01 -1.3599343703017030e+02 0 0 0
4883 196 4 0.0000000000000000e+00 -1.1090630346251716e+02 -4.7818350998368260e+01 -1.3453626389331228e+02 0 0 0
1401 57 1 0.0000000000000000e+00 -5.2812504140918094e+01 -5.2281286247870263e+01 -1.2822791964358171e+02 0 0 0
839 34 2 0.0000000000000000e+00 -2.9487031706995388e+01 -5.0553297635698414e+01 -1.2531844762102396e+02 0 0 0
838 34 1 0.0000000000000000e+00 -2.1958726030760392e+01 -5.6314746821468162e+01 -1.2391134666397748e+02 0 0 0
1430 58 2 0.0000000000000000e+00 1.0092523807678843e+01 -5.0179936543741583e+01 -1.3376869084861875e+02 0 0 0
1533 62 2 0.0000000000000000e+00 -1.1988885644574880e+02 -3.5303769828562800e+01 -1.2903067946516086e+02 0 0 0
1532 62 1 0.0000000000000000e+00 -1.2163382415247645e+02 -4.4910030124843225e+01 -1.3399611763542492e+02 0 0 0
3723 149 4 0.0000000000000000e+00 -9.2602197949827953e+01 -4.1219485873991637e+01 -1.2973689055930987e+02 0 0 0
840 34 2 0.0000000000000000e+00 -2.3947755801678312e+01 -4.2538225670245588e+01 -1.2442667618612316e+02 0 0 0
1428 58 2 0.0000000000000000e+00 7.7212237157568078e+00 -3.3068836809772236e+01 -1.2553072648735937e+02 0 0 0
1534 62 2 0.0000000000000000e+00 -1.1688847493427930e+02 -2.6252372154854022e+01 -1.2632519404518791e+02 0 0 0
1526 62 1 0.0000000000000000e+00 -1.0984018714103200e+02 -2.8686689186313778e+01 -1.3515724061434267e+02 0 0 0
3701 149 3 0.0000000000000000e+00 -7.6839115097488914e+01 -2.0089054702394986e+01 -1.3375088732471002e+02 0 0 0
597 24 2 0.0000000000000000e+00 -7.9625855708842394e+01 -7.5453684335657893e+00 -1.2567145230580498e+02 0 0 0
596 24 2 0.0000000000000000e+00 -7.3701314476101231e+01 -1.0531746406206222e+00 -1.3025189028222698e+02 0 0 0
595 24 2 0.0000000000000000e+00 -6.4197750333885679e+01 -1.5835775621818141e-01 -1.2998583292344424e+02 0 0 0
4727 190 4 0.0000000000000000e+00 -8.7811349845467248e+01 3.6882964337229375e+01 -1.2592562609515925e+02 0 0 0
4726 190 3 0.0000000000000000e+00 -8.4514441449626474e+01 3.3051070098191516e+01 -1.3496770613435305e+02 0 0 0
4070 163 4 0.0000000000000000e+00 -5.2638910298531734e+01 3.5862039188056073e+01 -1.2854934387623223e+02 0 0 0
4789 192 4 0.0000000000000000e+00 9.5036561251221041e+00 3.2944838586535603e+01 -1.2479091015363666e+02 0 0 0
4788 192 3 0.0000000000000000e+00 9.9799048550555796e+00 2.3316852697156850e+01 -1.2725030779588340e+02 0 0 0
4069 163 3 0.0000000000000000e+00 -5.0737395575646971e+01 4.2979804551635887e+01 -1.3602182372033852e+02 0 0 0
1119 45 1 0.0000000000000000e+00 -4.3273282492042910e+01 4.6964185098922066e+01 -1.2823866909476564e+02 0 0 0
1120 45 2 0.0000000000000000e+00 -3.4039606213420939e+01 4.3873175517407120e+01 -1.2501943174042079e+02 0 0 0
1121 45 2 0.0000000000000000e+00 -2.3924719455760599e+01 4.3196762135663569e+01 -1.2552786488749824e+02 0 0 0
1122 45 2 0.0000000000000000e+00 -1.4076806240989814e+01 4.0702941535784937e+01 -1.2528286286673105e+02 0 0 0
1123 45 2 0.0000000000000000e+00 -5.8960906000641033e+00 4.6173460273373088e+01 -1.2519184104582263e+02 0 0 0
1448 58 2 0.0000000000000000e+00 -1.4090788468022832e+00 -1.2931724278767700e+02 -1.1508159796373532e+02 0 0 0
1458 59 2 0.0000000000000000e+00 8.2017999160441608e+00 -1.3261753357688474e+02 -1.1977924027585001e+02 0 0 0
1447 58 2 0.0000000000000000e+00 5.3760412891711988e+00 -1.2280610547138282e+02 -1.1516633059952578e+02 0 0 0
1405 57 2 0.0000000000000000e+00 -3.9216220846182928e+01 -8.0642887189986709e+01 -1.1135850421018314e+02 0 0 0
1404 57 2 0.0000000000000000e+00 -4.1077447582258237e+01 -7.3276523383853629e+01 -1.1772013573619382e+02 0 0 0
4384 176 4 0.0000000000000000e+00 -1.7441666075529703e+01 -7.4237202222691863e+01 -1.1753551678657017e+02 0 0 0
1947 78 2 0.0000000000000000e+00 -1.4649866322478763e+02 -6.3613930836246972e+01 -1.1255210433351748e+02 0 0 0
1403 57 2 0.0000000000000000e+00 -4.3341966244816518e+01 -6.3924486804260745e+01 -1.2154510715697489e+02 0 0 0
4382 176 3 0.0000000000000000e+00 -3.0718505082235541e+01 -6.0788164700895734e+01 -1.1878279311068532e+02 0 0 0
4383 176 4 0.0000000000000000e+00 -2.5916603826861650e+01 -6.9581524263862093e+01 -1.1823890049425955e+02 0 0 0
837 34 2 0.0000000000000000e+00 -2.0491693175198581e+01 -6.1337594251535059e+01 -1.1532956313027793e+02 0 0 0