LAMMPS data file via write_data, version 5 Jun 2019, timestep = 350000000

5000 atoms
4 atom types
5208 bonds
3 bond types
4600 angles
2 angle types

-5.0000000000000000e+02 5.0000000000000000e+02 xlo xhi
-5.0000000000000000e+02 5.0000000000000000e+02 ylo yhi
-5.0000000000000000e+02 5.0000000000000000e+02 zlo zhi

Masses

1 1000
2 1000
3 1000
4 1000

Pair Coeffs # lj/cut

1 0.18 10
2 0.18 10
3 0.18 10
4 0.18 10

Bond Coeffs # harmonic

1 3 10
2 3 10
3 1.8 11.22

Angle Coeffs # cosine

1 2
2 2

Atoms # full

4451 179 3 0.0000000000000000e+00 3.3425625443090347e+01 -4.1606178450107947e+01 -2.5794250715378382e+02 0 0 0
4454 179 4 0.0000000000000000e+00 2.6019928456517910e+01 -1.6423627889444763e+01 -2.5635216700587262e+02 0 0 0
4453 179 4 0.0000000000000000e+00 2.9045850861548900e+01 -2.5828232401130421e+01 -2.5466624606647932e+02 0 0 0
3172 127 4 0.0000000000000000e+00 2.1566204780661824e+01 -6.1132191427617613e+01 -2.4678225937823541e+02 0 0 0
3171 127 4 0.0000000000000000e+00 2.9155480854819981e+01 -6.6656167605946834e+01 -2.4413311849252381e+02 0 0 0
2241 90 2 0.0000000000000000e+00 3.6635176799428386e+01 -4.2549054377859612e+01 -2.4451513184247381e+02 0 0 0
2240 90 2 0.0000000000000000e+00 4.2350212602124380e+01 -5.1597044970423418e+01 -2.4480879090929554e+02 0 0 0
78 4 2 0.0000000000000000e+00 5.8859141426849391e+00 -2.8150754409564428e+01 -2.4762384095849873e+02 0 0 0
4452 179 4 0.0000000000000000e+00 3.5465591818316874e+01 -3.3067074775526201e+01 -2.5305378426792157e+02 0 0 0
79 4 2 0.0000000000000000e+00 1.1233952246803943e+01 -1.9526561968137070e+01 -2.4638416870360874e+02 0 0 0
80 4 2 0.0000000000000000e+00 9.6968037200131612e+00 -1.0363847214246684e+01 -2.4315696470715966e+02 0 0 0
4455 179 4 0.0000000000000000e+00 2.3568920572560540e+01 -1.2289018955912981e+01 -2.4801948104494090e+02 0 0 0
4456 179 4 0.0000000000000000e+00 2.3993365084520985e+01 -4.8486216402497311e+00 -2.4110401619370120e+02 0 0 0
3170 127 4 0.0000000000000000e+00 2.9491907894345012e+01 -6.9583345232392148e+01 -2.3494817603133768e+02 0 0 0
3169 127 3 0.0000000000000000e+00 2.2886413668306893e+01 -7.1368267796846922e+01 -2.2756061640911219e+02 0 0 0
2238 90 1 0.0000000000000000e+00 4.1152270913469735e+01 -6.7235602431865772e+01 -2.3552658343952805e+02 0 0 0
4901 197 3 0.0000000000000000e+00 4.3187211837685581e+01 -5.8005090904111654e+01 -2.2943869610954553e+02 0 0 0
3174 127 4 0.0000000000000000e+00 1.6429393588098090e+01 -4.5189298100448532e+01 -2.4038136683784987e+02 0 0 0
3173 127 4 0.0000000000000000e+00 2.1789580242454456e+01 -5.3438485400070782e+01 -2.4048536123452126e+02 0 0 0
2243 90 2 0.0000000000000000e+00 2.2248079029040202e+01 -4.2185327158993033e+01 -2.3184229677830973e+02 0 0 0
3723 149 4 0.0000000000000000e+00 -9.0470197643659802e+01 -2.8709502435880051e+01 -2.3357731239407039e+02 0 0 0
76 4 1 0.0000000000000000e+00 1.6921009518342658e+00 -4.0675036553863357e+01 -2.3379048073414563e+02 0 0 0
77 4 2 0.0000000000000000e+00 2.0815896773186888e+00 -3.3013830374168414e+01 -2.3999943280486829e+02 0 0 0
3175 127 3 0.0000000000000000e+00 1.1004394533914519e+01 -3.6913734639874875e+01 -2.3866900480035781e+02 0 0 0
2244 90 1 0.0000000000000000e+00 1.5182944643194444e+01 -3.5744820234716229e+01 -2.2792666731741372e+02 0 0 0
2245 90 2 0.0000000000000000e+00 7.3767486135955789e+00 -2.9929722464065375e+01 -2.2914026142753920e+02 0 0 0
2242 90 2 0.0000000000000000e+00 2.9361822688601229e+01 -3.9941713779589293e+01 -2.3834907046476314e+02 0 0 0
4257 171 3 0.0000000000000000e+00 2.6270611062846150e+01 -3.3420009851174214e+01 -2.2808214771996339e+02 0 0 0
4258 171 4 0.0000000000000000e+00 1.9444179604833515e+01 -3.0574818928400546e+01 -2.3519218006848874e+02 0 0 0
3722 149 4 0.0000000000000000e+00 -9.5902801286107859e+01 -2.1793293657958539e+01 -2.2846369138995033e+02 0 0 0
3724 149 4 0.0000000000000000e+00 -8.3327668015175092e+01 -2.4594794422077566e+01 -2.2813163919478720e+02 0 0 0
2246 90 2 0.0000000000000000e+00 1.2728572466239788e+01 -2.1808498576848120e+01 -2.3090085896969956e+02 0 0 0
4259 171 4 0.0000000000000000e+00 2.0348577305467622e+01 -2.1546512700830661e+01 -2.3887565863289791e+02 0 0 0
4260 171 4 0.0000000000000000e+00 2.8963404622672321e+01 -1.7670974256283717e+01 -2.3550312606638059e+02 0 0 0
2247 90 2 0.0000000000000000e+00 7.8615294489317087e+00 -1.3363367866947035e+01 -2.2799110465914350e+02 0 0 0
81 4 2 0.0000000000000000e+00 9.4199662298402895e+00 -2.4727262918036614e+00 -2.3684462475792625e+02 0 0 0
4261 171 4 0.0000000000000000e+00 3.5365476359972092e+01 -1.4183267493436954e+01 -2.2805675198178071e+02 0 0 0
4459 179 4 0.0000000000000000e+00 8.1946411835080752e+00 9.2919181124767327e+00 -2.3119813499493389e+02 0 0 0
82 4 1 0.0000000000000000e+00 1.5394886771121790e+01 6.6565628480420291e-01 -2.2963548519463893e+02 0 0 0
4457 179 3 0.0000000000000000e+00 1.9601777835067566e+01 4.4448172575949254e+00 -2.4003718691383730e+02 0 0 0
3168 127 4 0.0000000000000000e+00 1.8180986690533199e+01 -7.3495671441185010e+01 -2.1885444983594755e+02 0 0 0
2236 90 2 0.0000000000000000e+00 3.7173178853658818e+01 -6.8669861627955967e+01 -2.1645535740760400e+02 0 0 0
2237 90 2 0.0000000000000000e+00 3.7981954844769149e+01 -6.6163256187641636e+01 -2.2624022843580218e+02 0 0 0
4902 197 4 0.0000000000000000e+00 4.1446866838142618e+01 -5.7297122877142712e+01 -2.1934327372575939e+02 0 0 0
4255 171 4 0.0000000000000000e+00 3.5409243077748357e+01 -4.6568352586936349e+01 -2.1760577736171484e+02 0 0 0
4256 171 4 0.0000000000000000e+00 3.1266971821698171e+01 -4.1594272947435059e+01 -2.2522957131776909e+02 0 0 0
258 11 2 0.0000000000000000e+00 -1.7349419786743649e+01 -3.5180256914516974e+01 -2.1712082131024010e+02 0 0 0
259 11 2 0.0000000000000000e+00 -1.2450800439260036e+01 -3.1426519100712287e+01 -2.2457116965730694e+02 0 0 0
3721 149 4 0.0000000000000000e+00 -1.0109171784449074e+02 -1.4959648282897517e+01 -2.2357206355635350e+02 0 0 0
3725 149 3 0.0000000000000000e+00 -7.5022669233338462e+01 -2.1057771954726434e+01 -2.2404003596770590e+02 0 0 0
2013 81 1 0.0000000000000000e+00 -6.5565395170611822e+01 -1.9247460811855337e+01 -2.1881168357067673e+02 0 0 0
2475 99 1 0.0000000000000000e+00 -4.4676889553966170e+01 -2.6309741861771577e+01 -2.1949059531104155e+02 0 0 0
2474 99 2 0.0000000000000000e+00 -4.6904630358868005e+01 -1.8594939748154598e+01 -2.2494142216386686e+02 0 0 0
260 11 2 0.0000000000000000e+00 -1.0647434175941337e+01 -2.3192228299530672e+01 -2.1925167942859602e+02 0 0 0
616 25 2 0.0000000000000000e+00 3.3227652908981931e+01 -2.5514785948556796e+01 -2.1760421784566614e+02 0 0 0
617 25 2 0.0000000000000000e+00 3.7608423605337748e+01 -2.6325512873934503e+01 -2.2673755664518552e+02 0 0 0
3720 149 4 0.0000000000000000e+00 -1.0485180329321530e+02 -5.7406473373881877e+00 -2.2053434331938780e+02 0 0 0
2473 99 2 0.0000000000000000e+00 -5.4246977234051201e+01 -1.1940015180494571e+01 -2.2202026265349465e+02 0 0 0
2472 99 2 0.0000000000000000e+00 -5.6626740947776604e+01 -4.7965963489768182e+00 -2.1553716249618245e+02 0 0 0
2248 90 2 0.0000000000000000e+00 4.9317225522041346e+00 -4.3612092111946357e+00 -2.2407556285702088e+02 0 0 0
4262 171 4 0.0000000000000000e+00 3.3031387176803584e+01 -9.6074628334138286e+00 -2.1940712118108758e+02 0 0 0
3719 149 3 0.0000000000000000e+00 -1.0637318180938684e+02 3.1825583395573114e+00 -2.1680607308348308e+02 0 0 0
3155 127 4 0.0000000000000000e+00 -2.6381704354473623e+01 1.2615021355763700e+01 -2.1609575031942794e+02 0 0 0
2249 90 2 0.0000000000000000e+00 -2.7551731786000602e+00 1.2214325151427921e+00 -2.2164488324832243e+02 0 0 0
2250 90 1 0.0000000000000000e+00 -9.2324914461006671e+00 6.4786902843659195e+00 -2.1533741546480002e+02 0 0 0
4465 179 4 0.0000000000000000e+00 1.3636604689897526e+01 5.9487903728381175e+00 -2.1590914789512382e+02 0 0 0
4466 179 4 0.0000000000000000e+00 1.9433036504384237e+01 9.3859393239779756e+00 -2.2455500057695480e+02 0 0 0
83 4 2 0.0000000000000000e+00 2.4759384921734995e+01 1.3920885005601671e+00 -2.2569499438217483e+02 0 0 0
84 4 2 0.0000000000000000e+00 3.2380590799047496e+01 3.2615889442221961e+00 -2.1936243345701143e+02 0 0 0
85 4 2 0.0000000000000000e+00 3.5655573343882239e+01 1.1518906979551836e+01 -2.1453148095275944e+02 0 0 0
3165 127 4 0.0000000000000000e+00 1.9392154860543560e+00 -5.7041953864836692e+01 -2.0678810824270104e+02 0 0 0
3166 127 4 0.0000000000000000e+00 1.0582715304557691e+01 -6.1860025754748804e+01 -2.0479474481838739e+02 0 0 0
3167 127 4 0.0000000000000000e+00 1.6165130126340735e+01 -6.6972697913039482e+01 -2.1141950362791496e+02 0 0 0
2234 90 2 0.0000000000000000e+00 2.6824063993707618e+01 -5.9355642062743378e+01 -2.0378691907244942e+02 0 0 0
4904 197 4 0.0000000000000000e+00 4.2241918098096214e+01 -6.6440750315318240e+01 -2.0428374348274244e+02 0 0 0
2235 90 2 0.0000000000000000e+00 3.1920916030819537e+01 -6.6268181798798963e+01 -2.0816713449162114e+02 0 0 0
3163 127 3 0.0000000000000000e+00 -1.1570476265788063e+01 -4.2210835007329329e+01 -2.0705218386356981e+02 0 0 0
3162 127 4 0.0000000000000000e+00 -2.1766966346498045e+01 -4.1840172663820844e+01 -2.0815903171824127e+02 0 0 0
3164 127 4 0.0000000000000000e+00 -4.0987964726383268e+00 -4.9355357088058874e+01 -2.0795746144674104e+02 0 0 0
2233 90 2 0.0000000000000000e+00 2.3507976010827424e+01 -4.9859658237284251e+01 -2.0040267745763825e+02 0 0 0
4254 171 4 0.0000000000000000e+00 3.4058486334330475e+01 -4.2514969636130061e+01 -2.0850841918950647e+02 0 0 0
2011 81 2 0.0000000000000000e+00 -5.6803576098441333e+01 -3.0331015713877221e+01 -2.0399199841208213e+02 0 0 0
2010 81 2 0.0000000000000000e+00 -4.7021085470325779e+01 -3.2471894546070473e+01 -2.0474974076398874e+02 0 0 0
3161 127 4 0.0000000000000000e+00 -2.9386026578257656e+01 -3.8265937835957928e+01 -2.0217687414268985e+02 0 0 0
3160 127 4 0.0000000000000000e+00 -3.4267240037281212e+01 -3.0070829601777326e+01 -1.9991343221981822e+02 0 0 0
257 11 1 0.0000000000000000e+00 -7.8144222921929716e+00 -3.2759508277725033e+01 -2.1237774629657588e+02 0 0 0
256 11 2 0.0000000000000000e+00 -1.9258127370545938e-02 -3.7902569908801688e+01 -2.1168988393257968e+02 0 0 0
255 11 2 0.0000000000000000e+00 8.6597916039661751e+00 -3.5742692619690104e+01 -2.0853274209038420e+02 0 0 0
254 11 2 0.0000000000000000e+00 1.6100141016054589e+01 -3.9714737501159576e+01 -2.0370059442238505e+02 0 0 0
2015 81 2 0.0000000000000000e+00 -7.9389436490556420e+01 -1.7538537280089294e+01 -2.0620213475541706e+02 0 0 0
2016 81 2 0.0000000000000000e+00 -8.8075803341803478e+01 -1.6866054545747463e+01 -2.0140988196598050e+02 0 0 0
2014 81 2 0.0000000000000000e+00 -7.0850694099746036e+01 -1.8310271818524857e+01 -2.1075101526272871e+02 0 0 0
2012 81 2 0.0000000000000000e+00 -6.2997761355406752e+01 -2.4402154760734948e+01 -2.1000220570143875e+02 0 0 0
2009 81 2 0.0000000000000000e+00 -4.1661382310253089e+01 -2.4540955640443052e+01 -2.0279505874332605e+02 0 0 0
3159 127 4 0.0000000000000000e+00 -3.1006393745104244e+01 -2.3214780871143887e+01 -2.0606644897818708e+02 0 0 0
261 11 2 0.0000000000000000e+00 -7.3110045344571111e+00 -1.6935491826385970e+01 -2.1226177320590472e+02 0 0 0
262 11 2 0.0000000000000000e+00 7.2797054956775575e-01 -2.1195253460401638e+01 -2.0876371299073136e+02 0 0 0
615 25 2 0.0000000000000000e+00 3.3614451601985898e+01 -2.3526097506177422e+01 -2.0767904697344824e+02 0 0 0
3158 127 4 0.0000000000000000e+00 -3.2094615787916005e+01 -1.3622534578858430e+01 -2.0787430357563090e+02 0 0 0
3157 127 3 0.0000000000000000e+00 -2.7388346243600829e+01 -4.4567534498391002e+00 -2.0495630748682905e+02 0 0 0
4263 171 3 0.0000000000000000e+00 2.5250795566619427e+01 -7.9337238850438778e+00 -2.1318661568436343e+02 0 0 0
4264 171 4 0.0000000000000000e+00 2.2166968808048939e+01 -1.5680328575142735e+00 -2.0594986206680269e+02 0 0 0
614 25 2 0.0000000000000000e+00 3.1190300092351876e+01 -1.3387580407571123e+01 -2.0671104419757907e+02 0 0 0
613 25 1 0.0000000000000000e+00 3.5169071070630189e+01 -4.9950540701124124e+00 -2.0942330244643640e+02 0 0 0
3718 149 4 0.0000000000000000e+00 -1.0299989025885495e+02 1.1610494591889978e+01 -2.1319815534506341e+02 0 0 0
2471 99 2 0.0000000000000000e+00 -6.3008246389217170e+01 -6.6817169054245829e-01 -2.0852707684851165e+02 0 0 0
3156 127 4 0.0000000000000000e+00 -2.8233228876757039e+01 3.5406160885166980e+00 -2.1136225187179448e+02 0 0 0
4475 179 3 0.0000000000000000e+00 -2.9530483384173891e+01 9.2831360976863078e+00 -2.0039226194382030e+02 0 0 0
4463 179 3 0.0000000000000000e+00 -1.5821818128133009e+00 1.0330038062182931e+01 -2.0685386471963528e+02 0 0 0
4464 179 4 0.0000000000000000e+00 5.8337060112215520e+00 3.8300083777859251e+00 -2.1060967863991632e+02 0 0 0
4265 171 4 0.0000000000000000e+00 2.2917204589789868e+01 6.4758459173986243e+00 -1.9997447659379694e+02 0 0 0
612 25 2 0.0000000000000000e+00 4.0379684078479194e+01 3.6101649353090592e+00 -2.0954317186143834e+02 0 0 0
2340 94 2 0.0000000000000000e+00 2.5848356664239059e+01 -1.0839450194233132e+02 -1.8770419351262370e+02 0 0 0
2342 94 2 0.0000000000000000e+00 4.0989304115892438e+01 -1.0317463647508254e+02 -1.9951951453137372e+02 0 0 0
2341 94 2 0.0000000000000000e+00 3.4173646567782669e+01 -1.0463911192178936e+02 -1.9277763742140490e+02 0 0 0
2231 90 2 0.0000000000000000e+00 9.7898844203911715e+00 -4.5703569502661495e+01 -1.8836136769617522e+02 0 0 0
2232 90 1 0.0000000000000000e+00 1.7675355063087597e+01 -4.8115637968529306e+01 -1.9278286675111161e+02 0 0 0
4253 171 4 0.0000000000000000e+00 3.5152610513556546e+01 -4.3320543986223228e+01 -1.9865875365169288e+02 0 0 0
4252 171 4 0.0000000000000000e+00 3.9188611861700082e+01 -4.3534801963878017e+01 -1.8990438638041610e+02 0 0 0
4900 196 3 0.0000000000000000e+00 -7.0549323827409381e+01 -3.7385113127881361e+01 -1.8745509777301456e+02 0 0 0
253 11 2 0.0000000000000000e+00 2.5534178715606242e+01 -3.8917492917235805e+01 -1.9890875900192935e+02 0 0 0
252 11 2 0.0000000000000000e+00 3.1155914836319432e+01 -3.1726405161619361e+01 -1.9478836039489124e+02 0 0 0
251 11 1 0.0000000000000000e+00 4.0340453959810894e+01 -2.8801499431116405e+01 -1.9582767164364375e+02 0 0 0
2017 81 2 0.0000000000000000e+00 -9.6575511164199142e+01 -1.7496332975662128e+01 -1.9554252761936212e+02 0 0 0
2008 81 2 0.0000000000000000e+00 -4.1711260066011135e+01 -1.5520242788703513e+01 -1.9824721910600863e+02 0 0 0
263 11 1 0.0000000000000000e+00 1.7921212203707417e+00 -2.1422593778552891e+01 -1.9853484569331275e+02 0 0 0
2018 81 2 0.0000000000000000e+00 -1.0090783932111250e+02 -8.6767162228134005e+00 -1.9796789469923741e+02 0 0 0
4887 196 4 0.0000000000000000e+00 -9.8915270061369952e+01 -3.8299624378821635e+00 -1.8830323699128149e+02 0 0 0
2469 99 1 0.0000000000000000e+00 -6.1305482423117610e+01 -2.1857120126753000e+00 -1.8979575609864875e+02 0 0 0
2470 99 2 0.0000000000000000e+00 -6.2942618341808547e+01 -4.4024089355503007e+00 -1.9887914068409737e+02 0 0 0
2007 81 1 0.0000000000000000e+00 -3.6534303888850097e+01 -7.0582538564998689e+00 -1.9896122838979073e+02 0 0 0
2006 81 2 0.0000000000000000e+00 -2.8414298036018497e+01 -1.5511180316629416e+00 -1.9563351305987734e+02 0 0 0
264 11 2 0.0000000000000000e+00 1.9840287315478631e+00 -1.3665568690896992e+01 -1.9176434745320316e+02 0 0 0
2020 81 2 0.0000000000000000e+00 -1.0605938493125200e+02 2.1976701475440752e+00 -1.8709744527653783e+02 0 0 0
2019 81 1 0.0000000000000000e+00 -1.0210031276390139e+02 1.0583424053771953e+00 -1.9642792372676703e+02 0 0 0
4888 196 3 0.0000000000000000e+00 -9.6458366516004048e+01 5.4273508230312846e+00 -1.8762979620913521e+02 0 0 0
2005 81 2 0.0000000000000000e+00 -2.6178891235477369e+01 7.0548905677348790e+00 -1.9095795102427610e+02 0 0 0
4266 171 4 0.0000000000000000e+00 3.1970261076437037e+01 3.1766675194450915e+00 -1.9860572731063414e+02 0 0 0
4267 171 4 0.0000000000000000e+00 3.8414932347516384e+01 9.0062756556263892e+00 -1.9325958933467317e+02 0 0 0
3079 124 4 0.0000000000000000e+00 3.1940016805226069e+01 -1.4037099990692221e+02 -1.7545230098078659e+02 0 0 0
3078 124 4 0.0000000000000000e+00 3.8137821361426170e+01 -1.3681830875829294e+02 -1.8234668417135640e+02 0 0 0
3077 124 4 0.0000000000000000e+00 3.6994582954638517e+01 -1.2843321545850847e+02 -1.7654418274974316e+02 0 0 0
3076 124 3 0.0000000000000000e+00 3.0184945693881222e+01 -1.2190084097989426e+02 -1.7311169069876829e+02 0 0 0
4910 197 4 0.0000000000000000e+00 4.1122229157989459e+01 -1.1213860347044927e+02 -1.8216028729634726e+02 0 0 0
2339 94 2 0.0000000000000000e+00 2.3412585642204700e+01 -1.0758688861382943e+02 -1.7813872940078730e+02 0 0 0
4911 197 4 0.0000000000000000e+00 3.8257417028265465e+01 -1.0302384766939763e+02 -1.7973143536466605e+02 0 0 0
4912 197 4 0.0000000000000000e+00 4.0607680742432017e+01 -9.3046068567186907e+01 -1.7863634865468359e+02 0 0 0
4899 196 4 0.0000000000000000e+00 -6.4964763986801941e+01 -2.9707344913315954e+01 -1.8403602584819873e+02 0 0 0
2226 90 1 0.0000000000000000e+00 -1.8614770060748977e+01 -3.0144417297208371e+01 -1.8129263504678019e+02 0 0 0
2230 90 2 0.0000000000000000e+00 9.4405851537124210e+00 -4.0521532079181569e+01 -1.7972251440962586e+02 0 0 0
2229 90 2 0.0000000000000000e+00 4.7547865744611828e+00 -3.1378448668041596e+01 -1.7938657988568627e+02 0 0 0
4898 196 4 0.0000000000000000e+00 -6.1509312961769552e+01 -2.1105183034384371e+01 -1.8009068169160651e+02 0 0 0
2228 90 2 0.0000000000000000e+00 3.6051786882109504e-01 -2.2954660306982426e+01 -1.7812097143543099e+02 0 0 0
2227 90 2 0.0000000000000000e+00 -9.0333019060812436e+00 -2.5958365668624744e+01 -1.8155224151937770e+02 0 0 0
4886 196 4 0.0000000000000000e+00 -1.0278543108003002e+02 -5.3747652108519999e+00 -1.7978062816424995e+02 0 0 0
4892 196 4 0.0000000000000000e+00 -6.8041311651576521e+01 -9.2066881712893323e-01 -1.7478023206260997e+02 0 0 0
4894 196 3 0.0000000000000000e+00 -5.4678483454477806e+01 -8.5613878979482134e+00 -1.8502225728965925e+02 0 0 0
4893 196 4 0.0000000000000000e+00 -6.3323643170475201e+01 -8.3730185058544802e+00 -1.7960714814667287e+02 0 0 0
4895 196 4 0.0000000000000000e+00 -4.7846195741894149e+01 -8.7707827097841946e+00 -1.7727346521787729e+02 0 0 0
598 24 2 0.0000000000000000e+00 -2.8927220565561989e+01 -5.0132175966908141e+00 -1.8159150946731387e+02 0 0 0
265 11 2 0.0000000000000000e+00 6.5576591997000939e+00 -8.8605044318675450e+00 -1.8468566273872887e+02 0 0 0
266 11 2 0.0000000000000000e+00 8.4221422345935970e+00 -3.6287835547656724e+00 -1.7658084277719507e+02 0 0 0
2022 81 2 0.0000000000000000e+00 -1.2207327394708939e+02 4.4123841774822301e+00 -1.7948653290148255e+02 0 0 0
2023 81 2 0.0000000000000000e+00 -1.3182566165090529e+02 1.8034984016174094e+00 -1.7919947020061170e+02 0 0 0
2021 81 2 0.0000000000000000e+00 -1.1291516931586258e+02 5.9469953090596022e+00 -1.8079825339876828e+02 0 0 0
4890 196 4 0.0000000000000000e+00 -8.3533720251096213e+01 8.9868438134802471e+00 -1.8254462737937891e+02 0 0 0
4891 196 4 0.0000000000000000e+00 -7.6541109988089673e+01 2.8304060248616438e+00 -1.7789868691188016e+02 0 0 0
2468 99 2 0.0000000000000000e+00 -5.6053056637064920e+01 5.3676688582444687e-01 -1.8100931402107551e+02 0 0 0
2467 99 2 0.0000000000000000e+00 -4.6581553883961824e+01 4.7213175523617670e+00 -1.7934570676554247e+02 0 0 0
2466 99 2 0.0000000000000000e+00 -3.9822788032727232e+01 1.1188776463520879e+01 -1.7585621367421555e+02 0 0 0
597 24 2 0.0000000000000000e+00 -3.6393563291163971e+01 -7.6938708121239208e-01 -1.7645612723817808e+02 0 0 0
600 24 1 0.0000000000000000e+00 -1.1700359848646283e+01 3.6875878375995530e+00 -1.8314225058050152e+02 0 0 0
599 24 2 0.0000000000000000e+00 -2.1000320599062292e+01 5.6421966230234377e-01 -1.8339088915636680e+02 0 0 0
4268 171 4 0.0000000000000000e+00 4.2992700162242606e+01 1.2502289712183792e+01 -1.8563145218611746e+02 0 0 0
3081 124 4 0.0000000000000000e+00 3.8347020509232195e+01 -1.5197695570159968e+02 -1.6234793167788501e+02 0 0 0
3080 124 4 0.0000000000000000e+00 3.5089120240274099e+01 -1.4808552386785450e+02 -1.7066545212067984e+02 0 0 0
2337 94 2 0.0000000000000000e+00 2.7429177144369550e+01 -1.2001744202872072e+02 -1.6411237015149322e+02 0 0 0
2338 94 1 0.0000000000000000e+00 2.6304687353464537e+01 -1.1203074218984543e+02 -1.7005384020052264e+02 0 0 0
1450 58 1 0.0000000000000000e+00 1.3371640898209101e+01 -7.1906369016815546e+01 -1.6657191515415363e+02 0 0 0
4383 176 4 0.0000000000000000e+00 1.9277692027108419e+01 -4.2132243163507383e+01 -1.5973613901064488e+02 0 0 0
4387 176 4 0.0000000000000000e+00 -1.4685527265552553e+01 -3.0522724123945000e+01 -1.7013615095096853e+02 0 0 0
4386 176 4 0.0000000000000000e+00 -6.4187169775633439e+00 -3.5424819322073361e+01 -1.7187232976154118e+02 0 0 0
4385 176 4 0.0000000000000000e+00 3.0672023373955435e+00 -3.6788949353441403e+01 -1.6724937144267295e+02 0 0 0
4384 176 4 0.0000000000000000e+00 1.2380819474727934e+01 -4.0074751252811623e+01 -1.6591695097676785e+02 0 0 0
4884 196 4 0.0000000000000000e+00 -9.5906549336422202e+01 -1.8648777339286170e+01 -1.6937920917986796e+02 0 0 0
4883 196 4 0.0000000000000000e+00 -8.9863159411016980e+01 -2.0894053049816346e+01 -1.6163063038743616e+02 0 0 0
4897 196 4 0.0000000000000000e+00 -5.8252523944767141e+01 -1.7172202597448980e+01 -1.7169276729044881e+02 0 0 0
4389 176 4 0.0000000000000000e+00 -2.8828649898860395e+01 -2.4945516196540737e+01 -1.6317647096610531e+02 0 0 0
4388 176 3 0.0000000000000000e+00 -2.4814585833450217e+01 -2.7560681522001659e+01 -1.7245327329016260e+02 0 0 0
2025 81 1 0.0000000000000000e+00 -1.4367214780069972e+02 -3.3885508776231359e+00 -1.6915030996110258e+02 0 0 0
4885 196 4 0.0000000000000000e+00 -9.9564144764458362e+01 -8.8143418868460977e+00 -1.7069846283927225e+02 0 0 0
4896 196 4 0.0000000000000000e+00 -5.1418730910556278e+01 -1.1257135721627643e+01 -1.6772036818541508e+02 0 0 0
2024 81 2 0.0000000000000000e+00 -1.3840832323680917e+02 4.8338717275721503e+00 -1.7215402636657106e+02 0 0 0
3702 149 4 0.0000000000000000e+00 -6.1734789298035885e+01 1.2682269363566649e+01 -1.6008975759789348e+02 0 0 0
1528 62 2 0.0000000000000000e+00 -5.5524775423899229e+01 -5.0706286198024797e-01 -1.6260956858486912e+02 0 0 0
1527 62 2 0.0000000000000000e+00 -5.7327851820242117e+01 6.5870332699805054e+00 -1.7039942258950524e+02 0 0 0
595 24 2 0.0000000000000000e+00 -4.7413028047432256e+01 5.6469462966507233e+00 -1.6312814801706818e+02 0 0 0
596 24 2 0.0000000000000000e+00 -3.8593678889668730e+01 2.7025859893071948e+00 -1.6726840764499522e+02 0 0 0
268 11 2 0.0000000000000000e+00 2.9795229074248590e+00 6.1314313579224917e+00 -1.6112857606859600e+02 0 0 0
267 11 2 0.0000000000000000e+00 6.4569229381975868e+00 1.0023920783159287e-01 -1.6770758639041469e+02 0 0 0
3255 131 4 0.0000000000000000e+00 2.0218848381436572e+01 -5.4217289384688205e-01 -1.6250363507834945e+02 0 0 0
3254 131 4 0.0000000000000000e+00 2.1366576374038129e+01 5.8357506732337443e+00 -1.7080623870361168e+02 0 0 0
351 15 1 0.0000000000000000e+00 3.0760661827018509e+01 -1.5030582261374732e+02 -1.4732669803439146e+02 0 0 0
3082 124 3 0.0000000000000000e+00 4.0940956450029539e+01 -1.5152932798262123e+02 -1.5210537681317228e+02 0 0 0
3526 142 3 0.0000000000000000e+00 -1.9349096447145961e+01 -1.4672301003199271e+02 -1.5613344149446152e+02 0 0 0
3527 142 4 0.0000000000000000e+00 -1.5097540257263594e+01 -1.3831588659462616e+02 -1.5361816364990653e+02 0 0 0
1225 49 1 0.0000000000000000e+00 -8.2406607629532900e+00 -1.4511810239647292e+02 -1.5553019191607143e+02 0 0 0
1224 49 2 0.0000000000000000e+00 -2.2437029879573567e+00 -1.3985138494807495e+02 -1.4909918933565302e+02 0 0 0
3528 142 4 0.0000000000000000e+00 -1.1892511052521799e+01 -1.2934803026343380e+02 -1.4968698366307481e+02 0 0 0
2336 94 2 0.0000000000000000e+00 3.1804283731397877e+01 -1.2643128541814123e+02 -1.5715129577288911e+02 0 0 0
2335 94 2 0.0000000000000000e+00 4.1572021306495209e+01 -1.2930284686077400e+02 -1.5593621766195039e+02 0 0 0
3530 142 4 0.0000000000000000e+00 -2.4741950126134707e+01 -1.2018249481207415e+02 -1.4804739999423941e+02 0 0 0
3529 142 4 0.0000000000000000e+00 -1.4533788396945422e+01 -1.1989237226405581e+02 -1.4985462337793692e+02 0 0 0
1222 49 2 0.0000000000000000e+00 -1.5064406151461889e+00 -1.2101849113855346e+02 -1.4556619612545288e+02 0 0 0
1449 58 2 0.0000000000000000e+00 1.9263149285928559e+01 -7.0277371058930441e+01 -1.5801325176961979e+02 0 0 0
1448 58 2 0.0000000000000000e+00 2.1691811683111620e+01 -6.6744157506560015e+01 -1.4840984706704651e+02 0 0 0
4382 176 3 0.0000000000000000e+00 2.6035868676357314e+01 -4.1282867130494211e+01 -1.5270998757053269e+02 0 0 0
4881 196 4 0.0000000000000000e+00 -8.1123083629622514e+01 -3.0646520729850437e+01 -1.4852921182581034e+02 0 0 0
3351 135 3 0.0000000000000000e+00 2.5320342686957144e+01 -2.9217879165003882e+01 -1.4978674200921128e+02 0 0 0
3352 135 4 0.0000000000000000e+00 3.3799452486089621e+01 -2.9865430986052001e+01 -1.5444694951118203e+02 0 0 0
4882 196 3 0.0000000000000000e+00 -8.1780277594442637e+01 -2.3282813692822284e+01 -1.5590611817792285e+02 0 0 0
1950 78 1 0.0000000000000000e+00 -7.5105371254736681e+01 -2.3095381265482295e+01 -1.4632433690600340e+02 0 0 0
1531 62 2 0.0000000000000000e+00 -5.8922136615763669e+01 -1.9562432400739841e+01 -1.4700950078775369e+02 0 0 0
4390 176 4 0.0000000000000000e+00 -3.1531333332798891e+01 -1.8990249242200569e+01 -1.5570343552192008e+02 0 0 0
4391 176 4 0.0000000000000000e+00 -3.0956758692139807e+01 -1.7009908263527269e+01 -1.4626186844891879e+02 0 0 0
274 11 2 0.0000000000000000e+00 1.2457703524516383e+01 -1.5128358009673221e+01 -1.5711046961024579e+02 0 0 0
275 11 1 0.0000000000000000e+00 1.6613034882549737e+01 -2.2277492830427224e+01 -1.5112969976815515e+02 0 0 0
1530 62 2 0.0000000000000000e+00 -5.2454970966092404e+01 -1.3552616508835669e+01 -1.5166509442464152e+02 0 0 0
1529 62 2 0.0000000000000000e+00 -4.9210003091113173e+01 -7.1615176458832952e+00 -1.5875724717413988e+02 0 0 0
273 11 2 0.0000000000000000e+00 6.1449888947250519e+00 -7.5968015231832533e+00 -1.5504275323980664e+02 0 0 0
3257 131 3 0.0000000000000000e+00 2.5220153724984446e+01 -9.7750933791218042e+00 -1.4914864749661484e+02 0 0 0
3256 131 4 0.0000000000000000e+00 1.9242572866587803e+01 -7.8660188651821734e+00 -1.5616947509602144e+02 0 0 0
594 24 1 0.0000000000000000e+00 -5.3726616484396295e+01 1.0366168490458564e+01 -1.5614141787313406e+02 0 0 0
272 11 2 0.0000000000000000e+00 4.8596563441447351e+00 4.7260065749797031e-01 -1.4901125012209664e+02 0 0 0
4783 192 4 0.0000000000000000e+00 1.6203471642122970e+01 5.6539882280635796e+00 -1.5407524572689786e+02 0 0 0
4784 192 4 0.0000000000000000e+00 2.4335796205537704e+01 3.7861647717535813e+00 -1.4873053826507811e+02 0 0 0
352 15 2 0.0000000000000000e+00 2.7248146012165137e+01 -1.5315655295321380e+02 -1.3825638116099267e+02 0 0 0
3083 124 4 0.0000000000000000e+00 3.9422409402208736e+01 -1.5807077724836250e+02 -1.4460414604891739e+02 0 0 0
3084 124 4 0.0000000000000000e+00 3.5927834275726525e+01 -1.6161889650057347e+02 -1.3608843766503767e+02 0 0 0
1454 59 2 0.0000000000000000e+00 -4.4470410762148234e+01 -1.4134636627003218e+02 -1.4192004102286214e+02 0 0 0
1453 59 2 0.0000000000000000e+00 -4.0758431523280677e+01 -1.4907016506339096e+02 -1.3593300386928507e+02 0 0 0
1456 59 2 0.0000000000000000e+00 -2.7773468157951580e+01 -1.3603342581797511e+02 -1.4224561071513898e+02 0 0 0
1457 59 1 0.0000000000000000e+00 -1.7897908077384283e+01 -1.3636654553615551e+02 -1.4199139991052328e+02 0 0 0
1455 59 2 0.0000000000000000e+00 -3.7918451334578812e+01 -1.3351933251243972e+02 -1.4305603196008192e+02 0 0 0
3531 142 4 0.0000000000000000e+00 -3.1391673223893076e+01 -1.2241619608382398e+02 -1.4049896739753143e+02 0 0 0
3275 131 3 0.0000000000000000e+00 -1.4375851338038913e+01 -1.2644478062453474e+02 -1.3770008338914701e+02 0 0 0
1223 49 2 0.0000000000000000e+00 -1.3664919716265989e+00 -1.3143178203476421e+02 -1.4399251725024610e+02 0 0 0
1458 59 2 0.0000000000000000e+00 -8.5639971552552172e+00 -1.3481208429500637e+02 -1.3764485133513065e+02 0 0 0
1459 59 2 0.0000000000000000e+00 1.1014625636775075e+00 -1.3249009018273395e+02 -1.3514942688846546e+02 0 0 0
1460 59 2 0.0000000000000000e+00 1.0474941578551634e+01 -1.3097206697133726e+02 -1.3214590015478348e+02 0 0 0
1461 59 2 0.0000000000000000e+00 2.0337375821091300e+01 -1.2918356774800256e+02 -1.3330552789950110e+02 0 0 0
1219 49 1 0.0000000000000000e+00 -2.2054599281653783e+01 -1.1384140550393879e+02 -1.3896986099327378e+02 0 0 0
1221 49 2 0.0000000000000000e+00 -5.7931913837452864e+00 -1.1230841240227907e+02 -1.4396927705685869e+02 0 0 0
1218 49 2 0.0000000000000000e+00 -3.0074039569969930e+01 -1.0783882599492767e+02 -1.3950313629124807e+02 0 0 0
1217 49 2 0.0000000000000000e+00 -3.5802334438598521e+01 -1.0281275986756759e+02 -1.3356347719786601e+02 0 0 0
1220 49 2 0.0000000000000000e+00 -1.3656712043173266e+01 -1.0859816637044329e+02 -1.3927007422916444e+02 0 0 0
3271 131 4 0.0000000000000000e+00 -1.2717640762687980e+01 -9.3803162986490292e+01 -1.3168049355843053e+02 0 0 0
3270 131 4 0.0000000000000000e+00 -7.5860869943015761e+00 -8.5592831710500903e+01 -1.3164952382355725e+02 0 0 0
3269 131 3 0.0000000000000000e+00 2.8336389546458290e-01 -7.9974485558343019e+01 -1.3533120703324613e+02 0 0 0
3268 131 4 0.0000000000000000e+00 9.8322579172085209e+00 -7.7523037521399587e+01 -1.3387381087211463e+02 0 0 0
3043 122 4 0.0000000000000000e+00 -1.5548593845022801e+01 -5.7288364773548530e+01 -1.3182532521378175e+02 0 0 0
1447 58 2 0.0000000000000000e+00 2.9756488537760060e+01 -6.5153856599089593e+01 -1.4224746693750245e+02 0 0 0
1446 58 2 0.0000000000000000e+00 3.7024318405909838e+01 -6.7063725047985358e+01 -1.3539297195913051e+02 0 0 0
4879 196 4 0.0000000000000000e+00 -7.4370285131448128e+01 -4.3959223696485118e+01 -1.3544749555070655e+02 0 0 0
3042 122 4 0.0000000000000000e+00 -1.8481062740095705e+01 -4.8298446852976170e+01 -1.3457138881261287e+02 0 0 0
3041 122 4 0.0000000000000000e+00 -9.9570963585847920e+00 -4.3910031930949735e+01 -1.3657134178655301e+02 0 0 0