LAMMPS data file via write_data, version 5 Jun 2019, timestep = 380000000

5000 atoms
4 atom types
5209 bonds
3 bond types
4600 angles
2 angle types

-5.0000000000000000e+02 5.0000000000000000e+02 xlo xhi
-5.0000000000000000e+02 5.0000000000000000e+02 ylo yhi
-5.0000000000000000e+02 5.0000000000000000e+02 zlo zhi

Masses

1 1000
2 1000
3 1000
4 1000

Pair Coeffs # lj/cut

1 0.18 10
2 0.18 10
3 0.18 10
4 0.18 10

Bond Coeffs # harmonic

1 3 10
2 3 10
3 1.8 11.22

Angle Coeffs # cosine

1 2
2 2

Atoms # full

3205 129 4 0.0000000000000000e+00 9.7668085959631910e+00 -1.2606116939213454e+02 -1.6675827616165694e+02 0 0 0
3204 129 4 0.0000000000000000e+00 7.7615035603244809e-01 -1.2437208933509254e+02 -1.6301057167244758e+02 0 0 0
495 20 2 0.0000000000000000e+00 -9.1483635555721676e+01 -7.6934411860106579e+01 -1.5593104048482871e+02 0 0 0
3216 129 4 0.0000000000000000e+00 -5.9300566082048247e+00 -7.2965200890636481e+01 -1.5671221506437999e+02 0 0 0
88 4 1 0.0000000000000000e+00 8.0158485601441978e+00 -7.9606424971140228e+01 -1.5660020104659509e+02 0 0 0
87 4 2 0.0000000000000000e+00 -4.1844084034916745e-01 -8.5648714549631990e+01 -1.5788015382424689e+02 0 0 0
3215 129 4 0.0000000000000000e+00 4.6994634799370083e-01 -7.3646871109193611e+01 -1.6384571990438999e+02 0 0 0
493 20 2 0.0000000000000000e+00 -1.0588307695304481e+02 -6.3731330745824856e+01 -1.5677713238673564e+02 0 0 0
498 20 2 0.0000000000000000e+00 -6.6879833613992204e+01 -6.6985226969297059e+01 -1.5597229718433633e+02 0 0 0
1401 57 1 0.0000000000000000e+00 -5.0390271991675654e+01 -6.3192098772362264e+01 -1.5956031683857515e+02 0 0 0
3918 157 4 0.0000000000000000e+00 -3.4754954141856423e+01 -6.2011719500094799e+01 -1.6317657984473004e+02 0 0 0
3919 157 3 0.0000000000000000e+00 -4.0254009623790765e+01 -6.6546758530548473e+01 -1.5572264240103146e+02 0 0 0
3214 129 4 0.0000000000000000e+00 9.4728184696908251e+00 -7.2173804756546716e+01 -1.6634639813107759e+02 0 0 0
2021 81 2 0.0000000000000000e+00 -1.0033372714999605e+02 -4.8515206256860594e+01 -1.6831281081343124e+02 0 0 0
2020 81 2 0.0000000000000000e+00 -1.0686323885630166e+02 -4.5929407610257876e+01 -1.6156397454694618e+02 0 0 0
2022 81 2 0.0000000000000000e+00 -9.1730098600315458e+01 -4.5494275285255966e+01 -1.6428697639137306e+02 0 0 0
2023 81 2 0.0000000000000000e+00 -8.3876592793435336e+01 -4.7602454795600394e+01 -1.5864762729089318e+02 0 0 0
499 20 2 0.0000000000000000e+00 -6.4078904214567203e+01 -5.7976479869398091e+01 -1.5940657777677640e+02 0 0 0
3917 157 4 0.0000000000000000e+00 -3.2378157552474491e+01 -5.3141110207364285e+01 -1.6711623848977655e+02 0 0 0
2019 81 1 0.0000000000000000e+00 -1.0412169811904835e+02 -3.8169597193500373e+01 -1.5651696513454186e+02 0 0 0
2920 117 4 0.0000000000000000e+00 -8.5709401219237421e+01 -3.6817429590669114e+01 -1.5949225068043319e+02 0 0 0
2921 117 4 0.0000000000000000e+00 -7.7204007832282699e+01 -3.2714006344986032e+01 -1.6189828980789557e+02 0 0 0
3916 157 4 0.0000000000000000e+00 -3.3157374274433899e+01 -4.3476773639334048e+01 -1.6374584784837097e+02 0 0 0
3915 157 4 0.0000000000000000e+00 -3.4835020131211252e+01 -3.3434032720877390e+01 -1.6169677570111924e+02 0 0 0
94 4 1 0.0000000000000000e+00 6.6027218053256185e+00 -3.2323380948742845e+01 -1.5761426193427454e+02 0 0 0
83 4 2 0.0000000000000000e+00 -1.5575702184672830e+01 -1.1519157216492415e+02 -1.4223888614704612e+02 0 0 0
3202 129 4 0.0000000000000000e+00 -6.5184833781675766e-01 -1.2616022264169949e+02 -1.4511994873611906e+02 0 0 0
3203 129 4 0.0000000000000000e+00 3.8632966213755955e+00 -1.2632031621385131e+02 -1.5358448701453074e+02 0 0 0
84 4 2 0.0000000000000000e+00 -1.7527518451925786e+01 -1.0656153255560145e+02 -1.4624448552137443e+02 0 0 0
2173 87 2 0.0000000000000000e+00 -3.2349672998801211e+01 -8.7064880704957901e+01 -1.4360584654514966e+02 0 0 0
2174 87 2 0.0000000000000000e+00 -2.2971794701058510e+01 -8.7348664508013812e+01 -1.4701495305123365e+02 0 0 0
85 4 2 0.0000000000000000e+00 -1.2763044375402142e+01 -9.8518863088412928e+01 -1.4860545009319091e+02 0 0 0
2175 87 1 0.0000000000000000e+00 -1.3421981595905704e+01 -8.6787647229068213e+01 -1.4968727987604524e+02 0 0 0
86 4 2 0.0000000000000000e+00 -6.8624356229879879e+00 -9.2903943891300329e+01 -1.5460241173494705e+02 0 0 0
497 20 2 0.0000000000000000e+00 -7.2659589139734791e+01 -7.5239008127074172e+01 -1.5418650159037409e+02 0 0 0
496 20 2 0.0000000000000000e+00 -8.1930931578495787e+01 -7.7517487866734882e+01 -1.5169419432275245e+02 0 0 0
1403 57 2 0.0000000000000000e+00 -5.8673736843086637e+01 -7.6149071268215238e+01 -1.4841510428951707e+02 0 0 0
1404 57 2 0.0000000000000000e+00 -6.4528484040351145e+01 -8.1950357557431488e+01 -1.4305385855003115e+02 0 0 0
3013 121 3 0.0000000000000000e+00 -9.9988591645048928e+00 -7.6906607027468809e+01 -1.4576518434548973e+02 0 0 0
3014 121 4 0.0000000000000000e+00 -2.7899503056608910e+00 -8.2454182354174833e+01 -1.4871004565388461e+02 0 0 0
3015 121 4 0.0000000000000000e+00 6.5324615741153247e+00 -8.5784815036408446e+01 -1.4735563532359609e+02 0 0 0
492 20 2 0.0000000000000000e+00 -1.1552033830689848e+02 -6.8089175344947904e+01 -1.5506133319645440e+02 0 0 0
491 20 2 0.0000000000000000e+00 -1.1743203649736631e+02 -6.6494660487323713e+01 -1.4537711572943491e+02 0 0 0
494 20 1 0.0000000000000000e+00 -9.7890150700449126e+01 -6.9334703748069174e+01 -1.5461873689636448e+02 0 0 0
3715 149 4 0.0000000000000000e+00 -1.0428823239571872e+02 -7.1949253051065483e+01 -1.4658106499821940e+02 0 0 0
3716 149 4 0.0000000000000000e+00 -9.4680708327490706e+01 -7.0796568041485102e+01 -1.4358508176749439e+02 0 0 0
3717 149 4 0.0000000000000000e+00 -8.7145466304149963e+01 -6.6261426459529133e+01 -1.4849950970888071e+02 0 0 0
3718 149 4 0.0000000000000000e+00 -7.6944321485699959e+01 -6.3686193547690820e+01 -1.4685712836346639e+02 0 0 0
1402 57 2 0.0000000000000000e+00 -5.7321281895305695e+01 -6.8185307431920521e+01 -1.5380465393371898e+02 0 0 0
3719 149 3 0.0000000000000000e+00 -6.7047791865131686e+01 -6.0286736516280016e+01 -1.4891552965544003e+02 0 0 0
3920 157 4 0.0000000000000000e+00 -4.5609877319637988e+01 -7.2442400245345638e+01 -1.4922776690913756e+02 0 0 0
3218 129 4 0.0000000000000000e+00 -2.2999993276197589e+01 -6.3503179143440256e+01 -1.4926240388730255e+02 0 0 0
3217 129 4 0.0000000000000000e+00 -1.3579857503287235e+01 -6.7954867718166923e+01 -1.5119539453554924e+02 0 0 0
500 20 1 0.0000000000000000e+00 -5.8310008178282459e+01 -5.3481113678900812e+01 -1.5233015456896206e+02 0 0 0
619 25 1 0.0000000000000000e+00 -3.8364428288339873e+01 -5.6851460296705795e+01 -1.4245229943897499e+02 0 0 0
3220 129 4 0.0000000000000000e+00 -3.6933743308873439e+01 -4.8906467744964729e+01 -1.4689334505851812e+02 0 0 0
3219 129 3 0.0000000000000000e+00 -3.0329960536852784e+01 -5.6188997197606994e+01 -1.4925131827821630e+02 0 0 0
2918 117 4 0.0000000000000000e+00 -9.5721968629634475e+01 -3.3470668994035677e+01 -1.4368525484904544e+02 0 0 0
2919 117 3 0.0000000000000000e+00 -9.3383207207392218e+01 -3.3892999573491281e+01 -1.5365557813701844e+02 0 0 0
2025 81 1 0.0000000000000000e+00 -7.9696423260681428e+01 -3.3532108957827170e+01 -1.4645663473809512e+02 0 0 0
2024 81 2 0.0000000000000000e+00 -8.0086813986449670e+01 -4.2869676332283703e+01 -1.5096533296398232e+02 0 0 0
3221 129 4 0.0000000000000000e+00 -4.3653097274471662e+01 -4.3450768595640675e+01 -1.4174674758002979e+02 0 0 0
82 4 1 0.0000000000000000e+00 -1.7859964568313980e+01 -1.2195142980921253e+02 -1.3521311152315334e+02 0 0 0
3201 129 3 0.0000000000000000e+00 -8.8726805003823195e+00 -1.2615716896077500e+02 -1.3956833284895035e+02 0 0 0
1876 76 1 0.0000000000000000e+00 -1.5807702827076231e+01 -1.0534549926515461e+02 -1.3403566202894933e+02 0 0 0
2172 87 2 0.0000000000000000e+00 -3.6064897529365936e+01 -8.8113673903216835e+01 -1.3385517632712043e+02 0 0 0
3010 121 4 0.0000000000000000e+00 -2.8476361540050920e+01 -8.9592252479674002e+01 -1.2816727715989185e+02 0 0 0
1877 76 2 0.0000000000000000e+00 -2.3166254071546138e+01 -9.8447603850298734e+01 -1.3411948018859869e+02 0 0 0
3016 121 4 0.0000000000000000e+00 1.1137152655380877e+01 -9.2674809018645959e+01 -1.4068370693144277e+02 0 0 0
3713 149 3 0.0000000000000000e+00 -1.1731559732494524e+02 -7.6980209664679961e+01 -1.3354034385364065e+02 0 0 0
1407 57 1 0.0000000000000000e+00 -9.2178767866669119e+01 -7.8776293502773242e+01 -1.3430834513594760e+02 0 0 0
1406 57 2 0.0000000000000000e+00 -8.3488239268960015e+01 -8.3004731917712434e+01 -1.3831929149853985e+02 0 0 0
1405 57 2 0.0000000000000000e+00 -7.4120899697055094e+01 -8.4152042335350359e+01 -1.4025348125043851e+02 0 0 0
4818 193 4 0.0000000000000000e+00 -7.1002217464995567e+01 -7.8105188607534288e+01 -1.2884243468574124e+02 0 0 0
4819 193 3 0.0000000000000000e+00 -8.1506866415860600e+01 -7.6474965305772642e+01 -1.2982516815081317e+02 0 0 0
3722 149 4 0.0000000000000000e+00 -5.5156931676192414e+01 -7.9781026946870099e+01 -1.3144558308728787e+02 0 0 0
3012 121 4 0.0000000000000000e+00 -1.8346222308634413e+01 -7.8879727878026699e+01 -1.4016074042045906e+02 0 0 0
3011 121 4 0.0000000000000000e+00 -2.0606728846209769e+01 -8.5056628728972470e+01 -1.3237168378809704e+02 0 0 0
489 20 2 0.0000000000000000e+00 -1.2622112438741324e+02 -7.1329164459727295e+01 -1.3007884043649008e+02 0 0 0
3714 149 4 0.0000000000000000e+00 -1.1169808945913238e+02 -7.1631117211240635e+01 -1.3901275132164153e+02 0 0 0
490 20 2 0.0000000000000000e+00 -1.1967984096423662e+02 -6.5815340251688212e+01 -1.3531778136376963e+02 0 0 0
1410 57 2 0.0000000000000000e+00 -1.1049492120715480e+02 -6.3111916400911426e+01 -1.3018135927796996e+02 0 0 0
1409 57 2 0.0000000000000000e+00 -1.0094472427786870e+02 -6.7382349847698379e+01 -1.2863286037223810e+02 0 0 0
1408 57 2 0.0000000000000000e+00 -9.2189877504407846e+01 -6.9235461589827096e+01 -1.3261714485103624e+02 0 0 0
4897 196 4 0.0000000000000000e+00 -7.3946910714398385e+01 -6.4497998892768791e+01 -1.3494730487305964e+02 0 0 0
3720 149 4 0.0000000000000000e+00 -6.4348549306337617e+01 -6.4543393484905693e+01 -1.4064432157515310e+02 0 0 0
3721 149 4 0.0000000000000000e+00 -5.9227618370617911e+01 -7.1036629562983919e+01 -1.3514193475601624e+02 0 0 0
3921 157 4 0.0000000000000000e+00 -5.0197298939108848e+01 -7.1805317434088622e+01 -1.4027281259808319e+02 0 0 0
3922 157 4 0.0000000000000000e+00 -4.8988084843945785e+01 -6.4420201167691388e+01 -1.3364298257304199e+02 0 0 0
618 25 2 0.0000000000000000e+00 -2.9947083676430111e+01 -6.2680361099213407e+01 -1.4035178041779355e+02 0 0 0
617 25 2 0.0000000000000000e+00 -2.1892802439611916e+01 -6.8020762106503270e+01 -1.4006476696719147e+02 0 0 0
616 25 2 0.0000000000000000e+00 -1.2398463892984475e+01 -6.9540048271353257e+01 -1.3859096603543338e+02 0 0 0
615 25 2 0.0000000000000000e+00 -7.8924370279570377e+00 -6.3334395736837273e+01 -1.3185125057325592e+02 0 0 0
4895 196 4 0.0000000000000000e+00 -8.2031603962576682e+01 -4.7582277689364957e+01 -1.4060258264322869e+02 0 0 0
4896 196 4 0.0000000000000000e+00 -7.7149054453441750e+01 -5.6692199252623311e+01 -1.3935808808845800e+02 0 0 0
620 25 2 0.0000000000000000e+00 -4.1512026904285278e+01 -5.2668870775040340e+01 -1.3403854092253721e+02 0 0 0
613 25 1 0.0000000000000000e+00 5.5826047108809340e-01 -4.6935396046590142e+01 -1.2775926474608089e+02 0 0 0
614 25 2 0.0000000000000000e+00 -1.6859381225361805e+00 -5.6271183896880345e+01 -1.2943262787451152e+02 0 0 0
4894 196 3 0.0000000000000000e+00 -8.4053424528009600e+01 -3.8223550474256697e+01 -1.3728370810627658e+02 0 0 0
3223 129 4 0.0000000000000000e+00 -6.1799379592210826e+01 -4.0660321878200222e+01 -1.4040213917530880e+02 0 0 0
3222 129 4 0.0000000000000000e+00 -5.2527834155862713e+01 -4.2216939325213900e+01 -1.3688777156908762e+02 0 0 0
612 25 2 0.0000000000000000e+00 5.2455483406898307e-01 -3.7599483123010280e+01 -1.3127817657534126e+02 0 0 0
81 4 2 0.0000000000000000e+00 -1.5849679457849781e+01 -1.2375594263394493e+02 -1.2524616300437006e+02 0 0 0
80 4 2 0.0000000000000000e+00 -1.9999858491916850e+01 -1.2148522529096363e+02 -1.1673863772825298e+02 0 0 0
1879 76 2 0.0000000000000000e+00 -3.0097154340538015e+01 -1.0344960815824162e+02 -1.1639558930001863e+02 0 0 0
1878 76 2 0.0000000000000000e+00 -2.6193260685370252e+01 -1.0213628630926191e+02 -1.2541723175987119e+02 0 0 0
4151 167 3 0.0000000000000000e+00 -9.9166206293698753e+00 -1.0575125548845178e+02 -1.2515371068176701e+02 0 0 0
4152 167 4 0.0000000000000000e+00 -7.7379194122353647e+00 -1.0333826292694143e+02 -1.1509673972816918e+02 0 0 0
1747 70 2 0.0000000000000000e+00 -1.1449948384582794e+02 -9.7988143870560648e+01 -1.1498631540917630e+02 0 0 0
1748 70 2 0.0000000000000000e+00 -1.0656351793550219e+02 -9.2924441806697175e+01 -1.1909164935685388e+02 0 0 0
1749 70 2 0.0000000000000000e+00 -9.7084256870058852e+01 -8.9335470076010196e+01 -1.1813649564968522e+02 0 0 0
3724 149 4 0.0000000000000000e+00 -5.9516765673891832e+01 -9.3943437275505133e+01 -1.1977291777583218e+02 0 0 0
3009 121 4 0.0000000000000000e+00 -2.8188249609991328e+01 -9.1179695144984024e+01 -1.1822493525708147e+02 0 0 0
488 20 1 0.0000000000000000e+00 -1.2485271737387131e+02 -8.0319722576748873e+01 -1.2565655841593643e+02 0 0 0
487 20 2 0.0000000000000000e+00 -1.1810512689015252e+02 -8.4817592838070752e+01 -1.1974113438641984e+02 0 0 0
3712 149 4 0.0000000000000000e+00 -1.1736177431705327e+02 -7.4589549752986400e+01 -1.2383971323434093e+02 0 0 0
4820 193 4 0.0000000000000000e+00 -8.9646756266549630e+01 -7.4605638772390932e+01 -1.2374695687211768e+02 0 0 0
4817 193 4 0.0000000000000000e+00 -7.6300876766959036e+01 -8.1145294973208209e+01 -1.2050590154154986e+02 0 0 0
4900 196 3 0.0000000000000000e+00 -6.2032607781047012e+01 -8.0002179034290407e+01 -1.1685170922257805e+02 0 0 0
3723 149 4 0.0000000000000000e+00 -5.7635168785283277e+01 -8.4687770064361246e+01 -1.2321417544859827e+02 0 0 0
4899 196 4 0.0000000000000000e+00 -6.9272896708717070e+01 -7.3777111742058935e+01 -1.1874358024887707e+02 0 0 0
1894 76 1 0.0000000000000000e+00 -5.2626426241508106e+01 -7.4484287114576986e+01 -1.1975825787546766e+02 0 0 0
1893 76 2 0.0000000000000000e+00 -4.7676061286770604e+01 -8.3877537626312346e+01 -1.1823029775797710e+02 0 0 0
2171 87 2 0.0000000000000000e+00 -3.8655346320263703e+01 -8.4041349471286622e+01 -1.2492405382944737e+02 0 0 0
2170 87 2 0.0000000000000000e+00 -3.6556699610814000e+01 -8.6220928864226337e+01 -1.1541430732854332e+02 0 0 0
3925 157 3 0.0000000000000000e+00 -4.1912381311008609e+01 -7.3291240737369066e+01 -1.1405768512155437e+02 0 0 0
1411 57 2 0.0000000000000000e+00 -1.1061005902668556e+02 -6.0402529687244169e+01 -1.2034393034159888e+02 0 0 0
3711 149 4 0.0000000000000000e+00 -1.0957053553426080e+02 -6.9842288810702527e+01 -1.1924365899997377e+02 0 0 0
3710 149 4 0.0000000000000000e+00 -1.0305185458849024e+02 -6.3395948478825808e+01 -1.1449942060272386e+02 0 0 0
4821 193 4 0.0000000000000000e+00 -9.0916981314389488e+01 -6.5399505807715158e+01 -1.2118673955077666e+02 0 0 0
4898 196 4 0.0000000000000000e+00 -7.3185431553052496e+01 -6.8584395948351656e+01 -1.2599879055804654e+02 0 0 0
1895 76 2 0.0000000000000000e+00 -5.6686574142024618e+01 -6.6392503301219904e+01 -1.1611235427200845e+02 0 0 0
1896 76 2 0.0000000000000000e+00 -6.5772154746960254e+01 -6.2204770360267091e+01 -1.1546719605639059e+02 0 0 0
3923 157 4 0.0000000000000000e+00 -4.4032877268831044e+01 -6.6828572237630013e+01 -1.2447958326927477e+02 0 0 0
3924 157 4 0.0000000000000000e+00 -4.5186885558192486e+01 -6.3968118469183054e+01 -1.1502095820400437e+02 0 0 0
4822 193 4 0.0000000000000000e+00 -8.9810271508998412e+01 -5.4960125028112721e+01 -1.1944278920190638e+02 0 0 0
4823 193 4 0.0000000000000000e+00 -8.5385646931021014e+01 -4.6316817039045539e+01 -1.1667820806804555e+02 0 0 0
621 25 2 0.0000000000000000e+00 -4.3780246549174400e+01 -5.1694673810739801e+01 -1.2412374811935258e+02 0 0 0
622 25 2 0.0000000000000000e+00 -4.7847612477475622e+01 -4.5799591961927604e+01 -1.1720331893708364e+02 0 0 0
1735 70 2 0.0000000000000000e+00 -1.0694864079542835e+02 -3.3214589424950276e+01 -1.2269436287785076e+02 0 0 0
1734 70 2 0.0000000000000000e+00 -9.8007560472305855e+01 -3.8349700679455303e+01 -1.2260101454117554e+02 0 0 0
1733 70 2 0.0000000000000000e+00 -9.2997959081947357e+01 -3.1921206625819032e+01 -1.1743598035063150e+02 0 0 0
4525 181 3 0.0000000000000000e+00 -3.9920751856344907e+01 -1.3035058968026843e+02 -1.0705859402324481e+02 0 0 0
4524 181 4 0.0000000000000000e+00 -4.1641730708291860e+01 -1.2307698512568172e+02 -1.0155551862396875e+02 0 0 0
79 4 2 0.0000000000000000e+00 -2.7086433074391117e+01 -1.2560208689093214e+02 -1.1045844214058621e+02 0 0 0
78 4 2 0.0000000000000000e+00 -2.4970534766242878e+01 -1.1607404974662839e+02 -1.0727685122167354e+02 0 0 0
4155 167 4 0.0000000000000000e+00 7.7277421964025343e+00 -1.1691874730077991e+02 -1.0046223593765374e+02 0 0 0
4154 167 4 0.0000000000000000e+00 -1.0312636666185204e+00 -1.1590691295100882e+02 -1.0349040754735802e+02 0 0 0
3725 149 3 0.0000000000000000e+00 -5.6455105964052279e+01 -1.0160563037028457e+02 -1.1383248940160274e+02 0 0 0
1881 76 2 0.0000000000000000e+00 -4.7562860036201720e+01 -1.0816321436260175e+02 -1.1321809109124091e+02 0 0 0
1882 76 1 0.0000000000000000e+00 -5.3058897741717708e+01 -1.0836951706598987e+02 -1.0523935324109878e+02 0 0 0
4523 181 4 0.0000000000000000e+00 -4.3689059332265259e+01 -1.1314994346695180e+02 -1.0110617579282820e+02 0 0 0
1880 76 2 0.0000000000000000e+00 -3.7208422378791091e+01 -1.0943259719619212e+02 -1.1172911836660469e+02 0 0 0
4372 175 4 0.0000000000000000e+00 -4.0041898877394246e+01 -1.0288473298222644e+02 -1.0224984358527176e+02 0 0 0
77 4 2 0.0000000000000000e+00 -1.8816202802008675e+01 -1.0932764286128072e+02 -1.0453593888200813e+02 0 0 0
4153 167 4 0.0000000000000000e+00 -4.0604971077721936e+00 -1.0617860466995315e+02 -1.0576148479408099e+02 0 0 0
76 4 1 0.0000000000000000e+00 -1.3400315888184705e+01 -1.0218048885348509e+02 -1.0034891118580816e+02 0 0 0
2905 117 4 0.0000000000000000e+00 -1.3802431446839569e+02 -9.2395781634100203e+01 -1.0374260382799379e+02 0 0 0
1745 70 2 0.0000000000000000e+00 -1.2336221248762854e+02 -8.8653637806048181e+01 -1.0518117149555076e+02 0 0 0
1746 70 2 0.0000000000000000e+00 -1.1814263124954729e+02 -9.6664823607331812e+01 -1.0520308063051409e+02 0 0 0
1750 70 1 0.0000000000000000e+00 -8.9267399338006399e+01 -8.7560372747994904e+01 -1.1254831147388148e+02 0 0 0
1890 76 2 0.0000000000000000e+00 -7.1883750618044587e+01 -9.2046805857412096e+01 -1.0363004350804778e+02 0 0 0
1891 76 2 0.0000000000000000e+00 -6.1980497740039723e+01 -9.2572984732653794e+01 -1.0701894508956981e+02 0 0 0
4373 175 4 0.0000000000000000e+00 -4.7919137239416635e+01 -9.6680140964573738e+01 -1.0305338073405836e+02 0 0 0
1892 76 2 0.0000000000000000e+00 -5.5585613646775101e+01 -8.7384355213610320e+01 -1.1258025026329445e+02 0 0 0
4374 175 4 0.0000000000000000e+00 -5.3547988006979381e+01 -8.9020962501635381e+01 -1.0081339820785887e+02 0 0 0
3008 121 4 0.0000000000000000e+00 -2.9909533680811226e+01 -9.2900401713588806e+01 -1.0881480368625023e+02 0 0 0
2906 117 4 0.0000000000000000e+00 -1.3953534033015993e+02 -8.4336706699237837e+01 -1.0947747246065626e+02 0 0 0
2907 117 3 0.0000000000000000e+00 -1.3145757404803501e+02 -7.9020250727381466e+01 -1.0988386556911374e+02 0 0 0
486 20 2 0.0000000000000000e+00 -1.1207184153766354e+02 -8.3631650985179576e+01 -1.1226830222994201e+02 0 0 0
485 20 2 0.0000000000000000e+00 -1.0325686781775532e+02 -8.0616466768761597e+01 -1.0858735581162492e+02 0 0 0
484 20 2 0.0000000000000000e+00 -9.7806245328955740e+01 -7.6825392295719141e+01 -1.0054925028034930e+02 0 0 0
4816 193 4 0.0000000000000000e+00 -7.3712543994925753e+01 -8.2571685394432905e+01 -1.1073925567181931e+02 0 0 0
1726 70 1 0.0000000000000000e+00 -6.9930016461535857e+01 -7.4640553210696666e+01 -1.0968556837878459e+02 0 0 0
4815 193 4 0.0000000000000000e+00 -7.1302138891548594e+01 -8.1200995062871485e+01 -1.0089246971043771e+02 0 0 0
4375 175 3 0.0000000000000000e+00 -5.1807535081241141e+01 -7.9328395824252155e+01 -1.0019021128561180e+02 0 0 0
2169 87 1 0.0000000000000000e+00 -3.3359746858023733e+01 -8.2400611991723920e+01 -1.0657555748353195e+02 0 0 0
2168 87 2 0.0000000000000000e+00 -2.9531614108397505e+01 -7.3869601480132729e+01 -1.0350026602763278e+02 0 0 0
2788 112 3 0.0000000000000000e+00 -4.6970174349152893e+00 -7.8617680800569232e+01 -1.0538764798189965e+02 0 0 0
2789 112 4 0.0000000000000000e+00 5.3601836935932736e+00 -7.9028883411901390e+01 -1.0490958604709458e+02 0 0 0
2909 117 4 0.0000000000000000e+00 -1.3491249447159836e+02 -6.0121595848444464e+01 -1.1121808008628697e+02 0 0 0
2908 117 4 0.0000000000000000e+00 -1.3427649328093582e+02 -6.9644697409488543e+01 -1.0786626609092635e+02 0 0 0
1743 70 2 0.0000000000000000e+00 -1.2520834233353713e+02 -7.1854952474152910e+01 -1.0163907013194276e+02 0 0 0
1412 57 2 0.0000000000000000e+00 -1.1695518641066207e+02 -6.0086426299267238e+01 -1.1308887242997562e+02 0 0 0
1728 70 2 0.0000000000000000e+00 -8.4354797204523322e+01 -6.1195040507766102e+01 -1.0950425852160247e+02 0 0 0
1727 70 2 0.0000000000000000e+00 -7.7512765455732733e+01 -6.7914139414415757e+01 -1.1060400495417740e+02 0 0 0
1897 76 2 0.0000000000000000e+00 -7.0819468201285375e+01 -6.1220418616156159e+01 -1.0726289477164401e+02 0 0 0
1898 76 2 0.0000000000000000e+00 -6.5046836742478362e+01 -6.8827941877696546e+01 -1.0320292420726572e+02 0 0 0
2165 87 2 0.0000000000000000e+00 -8.0899457621679947e+00 -6.5684861952562400e+01 -1.0164600914493437e+02 0 0 0
2910 117 4 0.0000000000000000e+00 -1.3534255931014317e+02 -5.0503144533582642e+01 -1.1004087134693675e+02 0 0 0
1413 57 1 0.0000000000000000e+00 -1.2186010133658883e+02 -5.4376483480295995e+01 -1.0671750744328543e+02 0 0 0
3709 149 4 0.0000000000000000e+00 -1.0161463851954535e+02 -5.7834440294256950e+01 -1.0594982360410003e+02 0 0 0
1729 70 2 0.0000000000000000e+00 -8.6858871031234187e+01 -5.1431057094797183e+01 -1.0769348918887080e+02 0 0 0
623 25 2 0.0000000000000000e+00 -4.4954272536162769e+01 -4.6321950520598925e+01 -1.0761795845265711e+02 0 0 0
2911 117 4 0.0000000000000000e+00 -1.3364282680048240e+02 -4.1011249606411198e+01 -1.0709825701221411e+02 0 0 0
2912 117 4 0.0000000000000000e+00 -1.3642606064435117e+02 -3.3199574931908813e+01 -1.1257261097607878e+02 0 0 0
1737 70 2 0.0000000000000000e+00 -1.1355995354555517e+02 -3.6030735476392799e+01 -1.0669607383687215e+02 0 0 0
1738 70 1 0.0000000000000000e+00 -1.2215614324255739e+02 -3.7211163082372337e+01 -1.0213972405149542e+02 0 0 0
1736 70 2 0.0000000000000000e+00 -1.0555957156053313e+02 -3.4202123946680636e+01 -1.1257123937947766e+02 0 0 0
1731 70 2 0.0000000000000000e+00 -8.8496977153935575e+01 -3.7390342009910896e+01 -1.0302876548025691e+02 0 0 0
4824 193 4 0.0000000000000000e+00 -8.2034877334162104e+01 -3.8073375450756984e+01 -1.1189967694098921e+02 0 0 0
624 25 2 0.0000000000000000e+00 -3.7062252267986871e+01 -4.3368548787330624e+01 -1.0249418257113625e+02 0 0 0
848 34 2 0.0000000000000000e+00 -1.7564820913947386e+01 -1.2926816109608788e+02 -9.2537100160934941e+01 0 0 0
1883 76 2 0.0000000000000000e+00 -5.8773439033286415e+01 -1.1476729195382200e+02 -1.0003860039866655e+02 0 0 0
1884 76 2 0.0000000000000000e+00 -6.6016168619868637e+01 -1.1428599761382621e+02 -9.3217442148515289e+01 0 0 0
846 34 2 0.0000000000000000e+00 -2.2114981049563720e+01 -1.1491458721171776e+02 -8.6469674491102808e+01 0 0 0
847 34 2 0.0000000000000000e+00 -1.7792246336375435e+01 -1.1932137865628320e+02 -9.4147026298666574e+01 0 0 0
2902 117 4 0.0000000000000000e+00 -1.1277964000656758e+02 -1.0233853613418599e+02 -9.3415740499793657e+01 0 0 0
4522 181 4 0.0000000000000000e+00 -4.2369199024638725e+01 -1.0887454612866998e+02 -9.1616474058490539e+01 0 0 0
4371 175 4 0.0000000000000000e+00 -3.0527898383585043e+01 -1.0401348456330007e+02 -9.9420742549227285e+01 0 0 0
4370 175 4 0.0000000000000000e+00 -2.2544815878253942e+01 -1.0150086023398710e+02 -9.4100158068643850e+01 0 0 0
4360 175 4 0.0000000000000000e+00 1.0665880347498101e+01 -1.1004942082005911e+02 -9.1408513438731049e+01 0 0 0
2904 117 4 0.0000000000000000e+00 -1.3187150016299876e+02 -9.5779049500548012e+01 -9.7244605569959617e+01 0 0 0
2903 117 4 0.0000000000000000e+00 -1.2307702006483046e+02 -9.9212441936481994e+01 -9.3985724302381129e+01 0 0 0
2901 117 3 0.0000000000000000e+00 -1.0518407834593489e+02 -9.8918590997447907e+01 -8.8417066923447337e+01 0 0 0
477 20 2 0.0000000000000000e+00 -9.1085939688126430e+01 -9.3764004401853157e+01 -9.1600368765836080e+01 0 0 0
1889 76 2 0.0000000000000000e+00 -7.2708864389085790e+01 -9.0020040074068476e+01 -9.2957709253006826e+01 0 0 0
3007 121 3 0.0000000000000000e+00 -3.0038582247099896e+01 -8.9174364050506014e+01 -9.9445708214293361e+01 0 0 0
3006 121 4 0.0000000000000000e+00 -3.2375188584748102e+01 -8.8425248599252029e+01 -8.9018925172700420e+01 0 0 0
4369 175 3 0.0000000000000000e+00 -1.5643807069562689e+01 -9.5407956821967232e+01 -9.0692367544849759e+01 0 0 0
2161 87 2 0.0000000000000000e+00 4.4633316831419725e+00 -9.8581609817220084e+01 -9.7392365752706894e+01 0 0 0
2162 87 2 0.0000000000000000e+00 5.4418504019937162e+00 -8.8153843662117794e+01 -9.6336237849815006e+01 0 0 0
1744 70 1 0.0000000000000000e+00 -1.2808973436016544e+02 -8.1429164188546736e+01 -9.9630212330605346e+01 0 0 0
478 20 2 0.0000000000000000e+00 -9.0701946024476641e+01 -8.3867189799982853e+01 -9.2663196641984257e+01 0 0 0
479 20 2 0.0000000000000000e+00 -8.4498567672867196e+01 -7.6039063820709600e+01 -9.3731388034152758e+01 0 0 0
4814 193 4 0.0000000000000000e+00 -7.5060200771503347e+01 -7.9739340987712851e+01 -9.1252350512547338e+01 0 0 0
1900 76 1 0.0000000000000000e+00 -5.6733923622313959e+01 -8.1386348364350667e+01 -9.0988703927141856e+01 0 0 0
3005 121 4 0.0000000000000000e+00 -3.7444975348883659e+01 -7.9824428925089222e+01 -8.7890027332317601e+01 0 0 0
2786 112 4 0.0000000000000000e+00 -1.4594768910189154e+01 -7.3434589128312112e+01 -8.9210479452327405e+01 0 0 0
2787 112 4 0.0000000000000000e+00 -1.1406193214189496e+01 -7.6452286569109802e+01 -9.8609020107041289e+01 0 0 0
2163 87 1 0.0000000000000000e+00 1.6857820068358729e+00 -7.8806851943010130e+01 -9.5349923658680339e+01 0 0 0
1742 70 2 0.0000000000000000e+00 -1.2557245373833095e+02 -6.5077098782111023e+01 -9.4615181139007163e+01 0 0 0
1741 70 2 0.0000000000000000e+00 -1.2986702919307999e+02 -5.9272412722590033e+01 -8.7349898592061066e+01 0 0 0
483 20 2 0.0000000000000000e+00 -9.6918312708852014e+01 -6.8943078655229158e+01 -9.4572855426401048e+01 0 0 0
3707 149 3 0.0000000000000000e+00 -1.0782353717561568e+02 -6.1611372489538795e+01 -9.0146806145529595e+01 0 0 0
480 20 2 0.0000000000000000e+00 -8.3160948275988162e+01 -6.6622485738427102e+01 -9.0995871526912225e+01 0 0 0
1899 76 2 0.0000000000000000e+00 -5.9568021094216711e+01 -7.2646009084995939e+01 -9.5356040472326072e+01 0 0 0
3004 121 4 0.0000000000000000e+00 -3.5460334859467409e+01 -7.0587398928009705e+01 -8.6578569053265653e+01 0 0 0
2166 87 2 0.0000000000000000e+00 -1.7477111299770456e+01 -6.2356348883621784e+01 -9.8926927991548411e+01 0 0 0
2167 87 2 0.0000000000000000e+00 -2.7515776448895139e+01 -6.4560555899778109e+01 -9.9585513026110135e+01 0 0 0
3003 121 4 0.0000000000000000e+00 -2.5918420174009974e+01 -6.7389051465772440e+01 -8.6315901467711939e+01 0 0 0
2164 87 2 0.0000000000000000e+00 -1.7815458461027059e-01 -7.0518682793755858e+01 -9.9735224109466017e+01 0 0 0
1740 70 2 0.0000000000000000e+00 -1.3044855352356046e+02 -4.9174278149893027e+01 -8.8556331895042675e+01 0 0 0
1414 57 2 0.0000000000000000e+00 -1.2199824600414701e+02 -5.0988110695925286e+01 -9.7598632531001385e+01 0 0 0
1415 57 2 0.0000000000000000e+00 -1.1984788755295264e+02 -4.5964603126099817e+01 -8.9299681535591063e+01 0 0 0
3708 149 4 0.0000000000000000e+00 -1.0353926646446679e+02 -5.5732146168845262e+01 -9.6270386754999961e+01 0 0 0
1730 70 2 0.0000000000000000e+00 -8.4369456459058028e+01 -4.5975860925745444e+01 -9.9915960726737609e+01 0 0 0
2350 94 1 0.0000000000000000e+00 3.8541763280977785e+00 -5.2857896038644185e+01 -8.6443344929015751e+01 0 0 0
1739 70 2 0.0000000000000000e+00 -1.2787539004948945e+02 -4.3078076188354387e+01 -9.6082196842938245e+01 0 0 0
4733 190 4 0.0000000000000000e+00 -1.1771451868320879e+02 -3.4279361320985082e+01 -9.0932872908347974e+01 0 0 0
625 25 1 0.0000000000000000e+00 -3.6866834852944976e+01 -3.7642517707347722e+01 -9.4715920811590138e+01 0 0 0
1847 74 2 0.0000000000000000e+00 6.1570444381871141e+00 -1.4202828495246428e+02 -8.6078887525055890e+01 0 0 0
1848 74 2 0.0000000000000000e+00 3.8447173293792192e+00 -1.4395364200998176e+02 -7.6575298085919073e+01 0 0 0
4364 175 4 0.0000000000000000e+00 -8.0104063185346828e+00 -1.3538197660454583e+02 -7.3012225739176898e+01 0 0 0
4363 175 3 0.0000000000000000e+00 -4.9409649987441373e-01 -1.2841872396580095e+02 -7.4277287465843045e+01 0 0 0
4366 175 4 0.0000000000000000e+00 -1.3657517059833658e+01 -1.1661359519058244e+02 -7.7365740010808764e+01 0 0 0
849 34 2 0.0000000000000000e+00 -1.1712515165115700e+01 -1.2489611581482197e+02 -8.5175969007326344e+01 0 0 0
850 34 1 0.0000000000000000e+00 -4.0934529027202906e+00 -1.2044100573768050e+02 -8.0659122787272949e+01 0 0 0
4365 175 4 0.0000000000000000e+00 -1.2643648148051540e+01 -1.2640635623619029e+02 -7.4250109127636478e+01 0 0 0
4362 175 4 0.0000000000000000e+00 7.7564335634379580e+00 -1.2551175072971729e+02 -7.9100390162300570e+01 0 0 0
4361 175 4 0.0000000000000000e+00 9.7608308507528072e+00 -1.1839581215151267e+02 -8.5662183281070170e+01 0 0 0
1886 76 2 0.0000000000000000e+00 -7.3090899384873481e+01 -1.0271251962599987e+02 -8.2409797580127474e+01 0 0 0
1885 76 2 0.0000000000000000e+00 -7.2289597770550742e+01 -1.1297320866604802e+02 -8.5572452921729578e+01 0 0 0
4521 181 4 0.0000000000000000e+00 -3.7986699166754640e+01 -1.0245952429810983e+02 -8.4763476089250332e+01 0 0 0
845 34 2 0.0000000000000000e+00 -2.4514882086216620e+01 -1.0946711712407752e+02 -7.8925980575472437e+01 0 0 0