LAMMPS data file via write_data, version 5 Jun 2019, timestep = 380000000

5000 atoms
4 atom types
5211 bonds
3 bond types
4600 angles
2 angle types

-5.0000000000000000e+02 5.0000000000000000e+02 xlo xhi
-5.0000000000000000e+02 5.0000000000000000e+02 ylo yhi
-5.0000000000000000e+02 5.0000000000000000e+02 zlo zhi

Masses

1 1000
2 1000
3 1000
4 1000

Pair Coeffs # lj/cut

1 0.18 10
2 0.18 10
3 0.18 10
4 0.18 10

Bond Coeffs # harmonic

1 3 10
2 3 10
3 1.8 11.22

Angle Coeffs # cosine

1 2
2 2

Atoms # full

675 27 1 0.0000000000000000e+00 -1.0946965573450251e+02 -6.9142532933715316e+01 -1.7573691770164473e+02 0 0 0
827 34 2 0.0000000000000000e+00 -5.6426653330229570e+01 -5.0869251255117057e+01 -1.7994136844254533e+02 0 0 0
2976 120 3 0.0000000000000000e+00 -4.0804615823739773e+01 -4.6709141849356762e+01 -1.8072959150512926e+02 0 0 0
4838 194 3 0.0000000000000000e+00 -4.9218017675751554e+01 -3.4601899287013460e+01 -1.7936474068504913e+02 0 0 0
826 34 1 0.0000000000000000e+00 -5.0819587234686246e+01 -4.4676337541709970e+01 -1.8493875137995872e+02 0 0 0
4731 190 4 0.0000000000000000e+00 -1.3129863793054892e+02 -1.0417890904304222e+02 -1.6290941930464217e+02 0 0 0
4732 190 3 0.0000000000000000e+00 -1.2595565572087331e+02 -1.1109273036006324e+02 -1.6812301064854864e+02 0 0 0
4733 190 4 0.0000000000000000e+00 -1.1973345131001473e+02 -1.1248147909311638e+02 -1.5995407944154360e+02 0 0 0
4730 190 4 0.0000000000000000e+00 -1.3507812256254633e+02 -9.5022825619866438e+01 -1.6434012000373230e+02 0 0 0
1445 58 2 0.0000000000000000e+00 -3.4055805225362157e+01 -9.3551324723548632e+01 -1.6048795117426556e+02 0 0 0
1446 58 2 0.0000000000000000e+00 -4.1183081993846010e+01 -8.6777581680039376e+01 -1.6047631919692404e+02 0 0 0
4729 190 4 0.0000000000000000e+00 -1.3749306937513063e+02 -8.5913516615886195e+01 -1.6153541872501265e+02 0 0 0
4727 190 4 0.0000000000000000e+00 -1.2452265584505827e+02 -7.3140089974731850e+01 -1.6440009892931351e+02 0 0 0
1448 58 2 0.0000000000000000e+00 -5.3627574702380258e+01 -8.3560634531397412e+01 -1.6378890112946945e+02 0 0 0
1447 58 2 0.0000000000000000e+00 -4.4771184997712183e+01 -8.0529889689417175e+01 -1.6737527909003566e+02 0 0 0
833 34 2 0.0000000000000000e+00 -2.7927527966700037e+01 -8.0029933296056228e+01 -1.6194710172486481e+02 0 0 0
4726 190 3 0.0000000000000000e+00 -1.1845537030835709e+02 -6.7628518355025051e+01 -1.6943889695217251e+02 0 0 0
674 27 2 0.0000000000000000e+00 -1.0387674990867266e+02 -6.8532212623262524e+01 -1.6779600814189908e+02 0 0 0
673 27 2 0.0000000000000000e+00 -9.8654708367690048e+01 -6.4920183743190250e+01 -1.6083572517365388e+02 0 0 0
831 34 2 0.0000000000000000e+00 -3.4408013247427768e+01 -6.4037836417763984e+01 -1.6032607465651796e+02 0 0 0
1900 76 1 0.0000000000000000e+00 -7.3425045591118646e+01 -4.6880858275895577e+01 -1.6488680536780248e+02 0 0 0
828 34 2 0.0000000000000000e+00 -5.5669420991424111e+01 -5.6525038429169953e+01 -1.7200849163664344e+02 0 0 0
829 34 2 0.0000000000000000e+00 -4.8476718472876158e+01 -5.8279894244436974e+01 -1.6597484594944922e+02 0 0 0
2977 120 4 0.0000000000000000e+00 -4.3925452298026130e+01 -4.6040450502451584e+01 -1.7136996964579041e+02 0 0 0
830 34 2 0.0000000000000000e+00 -3.8446300882536029e+01 -5.6675156251130218e+01 -1.6587081614155818e+02 0 0 0
1899 76 2 0.0000000000000000e+00 -7.4232740816274017e+01 -3.7612873746114801e+01 -1.6991588845219880e+02 0 0 0
2978 120 4 0.0000000000000000e+00 -4.7191831373142648e+01 -4.3773745542479510e+01 -1.6186633536743960e+02 0 0 0
4839 194 4 0.0000000000000000e+00 -4.8993550283309872e+01 -3.4614662484660030e+01 -1.6884451189243174e+02 0 0 0
4575 183 3 0.0000000000000000e+00 -2.3914417354105179e+01 -3.5876649921915444e+01 -1.6318960470322696e+02 0 0 0
4734 190 4 0.0000000000000000e+00 -1.1647715839132243e+02 -1.1446033679079613e+02 -1.4985002297257591e+02 0 0 0
1450 58 1 0.0000000000000000e+00 -6.8321436052536626e+01 -8.8106314262230740e+01 -1.5158756864593505e+02 0 0 0
1444 58 1 0.0000000000000000e+00 -3.0669972173432168e+01 -9.5305681800641366e+01 -1.5104333651463773e+02 0 0 0
834 34 2 0.0000000000000000e+00 -2.1467598806218724e+01 -8.6568825896257223e+01 -1.5765273313486102e+02 0 0 0
4728 190 4 0.0000000000000000e+00 -1.3263709886304801e+02 -7.6859777226176490e+01 -1.5862465656955519e+02 0 0 0
1449 58 2 0.0000000000000000e+00 -6.2289300314072399e+01 -8.5313863470372269e+01 -1.5881788945188023e+02 0 0 0
4551 183 3 0.0000000000000000e+00 -3.3819207877639883e+01 -8.1609292057449608e+01 -1.4949742757742840e+02 0 0 0
832 34 1 0.0000000000000000e+00 -3.2842486663855077e+01 -7.3279729363465265e+01 -1.5651793542427694e+02 0 0 0
4552 183 4 0.0000000000000000e+00 -2.4505809280218738e+01 -7.7825607217191106e+01 -1.4849185520795635e+02 0 0 0
672 27 2 0.0000000000000000e+00 -9.0720580315052658e+01 -5.9649579160027592e+01 -1.5803882127936490e+02 0 0 0
671 27 2 0.0000000000000000e+00 -9.0181141759461454e+01 -5.7493740186430877e+01 -1.4777542168877724e+02 0 0 0
3701 149 3 0.0000000000000000e+00 -7.9886114387563538e+01 -4.5696244925503294e+01 -1.5560348378209184e+02 0 0 0
658 27 2 0.0000000000000000e+00 -2.6407971435104169e+01 -4.8287185840952141e+01 -1.4671517848962273e+02 0 0 0
3703 149 4 0.0000000000000000e+00 -9.8502638690324758e+01 -4.1426271442221356e+01 -1.5184559348113351e+02 0 0 0
3702 149 4 0.0000000000000000e+00 -8.8318176045274242e+01 -4.0204602805332620e+01 -1.5423575235126427e+02 0 0 0
2979 120 4 0.0000000000000000e+00 -4.7224991337056785e+01 -4.3740518884219931e+01 -1.5138776625657817e+02 0 0 0
656 27 2 0.0000000000000000e+00 -3.0361584577708623e+01 -3.2307528552052723e+01 -1.5229438868724054e+02 0 0 0
657 27 1 0.0000000000000000e+00 -2.6002075580404863e+01 -4.1370573094458933e+01 -1.5349469259615194e+02 0 0 0
4574 183 4 0.0000000000000000e+00 -1.8569572531217482e+01 -3.2692436255762637e+01 -1.5418290430455764e+02 0 0 0
4735 190 4 0.0000000000000000e+00 -1.2456645746491321e+02 -1.1875021644978936e+02 -1.4586712809771475e+02 0 0 0
4736 190 4 0.0000000000000000e+00 -1.2809432425537699e+02 -1.1324070670423190e+02 -1.3809114654195719e+02 0 0 0
1443 58 2 0.0000000000000000e+00 -2.2269682186971377e+01 -9.5327394763188039e+01 -1.4503890472328786e+02 0 0 0
662 27 2 0.0000000000000000e+00 -4.3688764649578687e+01 -6.2647995459309364e+01 -1.3732176593226475e+02 0 0 0
3705 149 4 0.0000000000000000e+00 -9.8985501270113801e+01 -4.5780764961445819e+01 -1.3666723740399328e+02 0 0 0
670 27 2 0.0000000000000000e+00 -9.2086250832082143e+01 -5.5654031181421793e+01 -1.3807245648585885e+02 0 0 0
659 27 2 0.0000000000000000e+00 -2.4697356690893368e+01 -5.5249538389675472e+01 -1.3898776704432686e+02 0 0 0
3670 147 4 0.0000000000000000e+00 -1.8354075349619009e+01 -4.7348746642600979e+01 -1.3772799936030486e+02 0 0 0
3669 147 3 0.0000000000000000e+00 -1.6272867953688504e+01 -5.5448083860923816e+01 -1.4246767606842371e+02 0 0 0
3704 149 4 0.0000000000000000e+00 -1.0424247623732667e+02 -4.0629506209604031e+01 -1.4346538519057788e+02 0 0 0
2980 120 4 0.0000000000000000e+00 -4.3410645235429300e+01 -4.3777414820789744e+01 -1.4177446999799204e+02 0 0 0
1887 76 2 0.0000000000000000e+00 -1.7739584006375679e+01 -3.4172251130554386e+01 -1.3664630762568586e+02 0 0 0
420 17 2 0.0000000000000000e+00 -8.9458773031812299e+01 -1.2862362896361168e+02 -1.2746707163721321e+02 0 0 0
425 17 1 0.0000000000000000e+00 -1.2615893485267794e+02 -1.1550396794176953e+02 -1.1953452898004156e+02 0 0 0
421 17 2 0.0000000000000000e+00 -9.4630881354726824e+01 -1.2348822844194341e+02 -1.2119418737688203e+02 0 0 0
419 17 1 0.0000000000000000e+00 -8.2786533103081879e+01 -1.2197893590100144e+02 -1.2449083140194639e+02 0 0 0
418 17 2 0.0000000000000000e+00 -7.4950511852653420e+01 -1.1596754594437019e+02 -1.2325873013841831e+02 0 0 0
4737 190 4 0.0000000000000000e+00 -1.2819079834587455e+02 -1.0953222470585631e+02 -1.2836208987771286e+02 0 0 0
4738 190 3 0.0000000000000000e+00 -1.2558819622595011e+02 -1.0377267959695851e+02 -1.2076482591390301e+02 0 0 0
424 17 2 0.0000000000000000e+00 -1.1895951679562012e+02 -1.1233386089097884e+02 -1.2523431270106981e+02 0 0 0
423 17 2 0.0000000000000000e+00 -1.0899991280232474e+02 -1.1246312471727202e+02 -1.2239029678387595e+02 0 0 0
3101 125 3 0.0000000000000000e+00 -8.9989802425226401e+01 -1.1393102971775932e+02 -1.2202950398398831e+02 0 0 0
3976 160 3 0.0000000000000000e+00 -1.1907203025928388e+02 -9.7622918196814609e+01 -1.2501070292654374e+02 0 0 0
416 17 2 0.0000000000000000e+00 -6.5779045471921066e+01 -9.8680111127828795e+01 -1.1933693527310378e+02 0 0 0
415 17 2 0.0000000000000000e+00 -6.1880216075612388e+01 -8.9619007809859795e+01 -1.2238273727464323e+02 0 0 0
4864 195 4 0.0000000000000000e+00 -4.3855133207953287e+01 -9.7943754031004346e+01 -1.1993386926494391e+02 0 0 0
4865 195 4 0.0000000000000000e+00 -4.1312889674392622e+01 -8.9371694488478951e+01 -1.2451925296412303e+02 0 0 0
4872 195 4 0.0000000000000000e+00 -1.0024283825351385e+02 -7.9243443216708755e+01 -1.2365579446780215e+02 0 0 0
4871 195 4 0.0000000000000000e+00 -9.0957852946544648e+01 -7.5289795590321873e+01 -1.2605410093372485e+02 0 0 0
4866 195 4 0.0000000000000000e+00 -4.6528885701994128e+01 -8.0883048513367399e+01 -1.2709131104921289e+02 0 0 0
4867 195 4 0.0000000000000000e+00 -5.4075245206326450e+01 -7.4075162902614977e+01 -1.2576745750044782e+02 0 0 0
4873 195 4 0.0000000000000000e+00 -1.0543651788882553e+02 -7.1096765979120988e+01 -1.2038996682893830e+02 0 0 0
4874 195 4 0.0000000000000000e+00 -1.0764819446255849e+02 -6.3099415964148541e+01 -1.2695914727815916e+02 0 0 0
4870 195 4 0.0000000000000000e+00 -8.1460577864603408e+01 -7.2030099860243197e+01 -1.2729287892762815e+02 0 0 0
4869 195 3 0.0000000000000000e+00 -7.2763811084206395e+01 -7.0434479237910907e+01 -1.2303135430300574e+02 0 0 0
4868 195 4 0.0000000000000000e+00 -6.2871907754544765e+01 -6.9615598326228721e+01 -1.2256284081451774e+02 0 0 0
661 27 2 0.0000000000000000e+00 -3.8546158631927455e+01 -6.5474535817123197e+01 -1.2942294599205064e+02 0 0 0
660 27 2 0.0000000000000000e+00 -2.9962364548477208e+01 -6.1021246723082996e+01 -1.3180337357578259e+02 0 0 0
4875 195 3 0.0000000000000000e+00 -1.0709445393561873e+02 -5.3467950314896335e+01 -1.2401652029101096e+02 0 0 0
669 27 1 0.0000000000000000e+00 -9.6976320820123121e+01 -5.4849662814004930e+01 -1.2883703048992129e+02 0 0 0
668 27 2 0.0000000000000000e+00 -9.1938010275559861e+01 -5.1529512036826311e+01 -1.2189453379828414e+02 0 0 0
666 27 2 0.0000000000000000e+00 -7.2023115109470794e+01 -5.4567037033475451e+01 -1.1955369976407096e+02 0 0 0
667 27 2 0.0000000000000000e+00 -8.2301382687595037e+01 -5.4303403501611442e+01 -1.2050033371909861e+02 0 0 0
665 27 2 0.0000000000000000e+00 -6.2092852127200565e+01 -5.4339528727098518e+01 -1.2066504575466800e+02 0 0 0
663 27 1 0.0000000000000000e+00 -4.4885151561240420e+01 -5.4472327095207845e+01 -1.3164357800809694e+02 0 0 0
664 27 2 0.0000000000000000e+00 -5.2625557073486462e+01 -5.4784513255024699e+01 -1.2490783250238053e+02 0 0 0
2982 120 3 0.0000000000000000e+00 -4.8795369842375379e+01 -4.5658858017083105e+01 -1.2570447845970274e+02 0 0 0
3706 149 4 0.0000000000000000e+00 -1.0102059120810186e+02 -4.4520377800347234e+01 -1.2665495173980221e+02 0 0 0
2983 120 4 0.0000000000000000e+00 -5.8195639495621521e+01 -4.4255701337316026e+01 -1.2246588630309328e+02 0 0 0
2981 120 4 0.0000000000000000e+00 -4.1499544383635779e+01 -4.1830809659341703e+01 -1.3177308341311235e+02 0 0 0
422 17 2 0.0000000000000000e+00 -9.9201021766228010e+01 -1.1464171070172108e+02 -1.1865003325823304e+02 0 0 0
1405 57 2 0.0000000000000000e+00 -9.5860614264309547e+01 -1.1414475584380276e+02 -1.0801329009947932e+02 0 0 0
4859 195 4 0.0000000000000000e+00 -6.2546973912177307e+01 -1.2066343482952304e+02 -1.0642850758650715e+02 0 0 0
4739 190 4 0.0000000000000000e+00 -1.1599092542313036e+02 -1.0641532110350263e+02 -1.1799270988001615e+02 0 0 0
4740 190 4 0.0000000000000000e+00 -1.1373510276451395e+02 -1.0917288242756354e+02 -1.0777815204166464e+02 0 0 0
1406 57 2 0.0000000000000000e+00 -8.5803711157313629e+01 -1.1286412349918157e+02 -1.0949471753591506e+02 0 0 0
3102 125 4 0.0000000000000000e+00 -8.5412576753035907e+01 -1.0557578952801087e+02 -1.1836282196142473e+02 0 0 0
417 17 2 0.0000000000000000e+00 -7.0329556392909240e+01 -1.0820097771069200e+02 -1.1890977708096467e+02 0 0 0
1407 57 1 0.0000000000000000e+00 -7.8018528636848274e+01 -1.0669544415232383e+02 -1.0741275905946353e+02 0 0 0
4861 195 4 0.0000000000000000e+00 -4.6110014694110276e+01 -1.1200542214317746e+02 -1.0840932500706097e+02 0 0 0
4862 195 4 0.0000000000000000e+00 -3.9156075101092227e+01 -1.0518933081818015e+02 -1.1049121650723885e+02 0 0 0
3977 160 4 0.0000000000000000e+00 -1.2438091749827802e+02 -9.2843552793151403e+01 -1.1797933336002592e+02 0 0 0
3978 160 4 0.0000000000000000e+00 -1.2665996489477247e+02 -8.9753238934432702e+01 -1.0885659458409893e+02 0 0 0
4741 190 4 0.0000000000000000e+00 -1.1325333808907413e+02 -9.9171502615165920e+01 -1.0604967260549265e+02 0 0 0
4742 190 4 0.0000000000000000e+00 -1.0824770526328406e+02 -9.3142058049060978e+01 -1.1233753654876978e+02 0 0 0
3103 125 4 0.0000000000000000e+00 -8.1477816236144079e+01 -9.7419149122727489e+01 -1.1310862312620034e+02 0 0 0
413 17 1 0.0000000000000000e+00 -4.8299694248545563e+01 -8.9017924119290512e+01 -1.1265508480808150e+02 0 0 0
4863 195 3 0.0000000000000000e+00 -3.9666504806964078e+01 -9.5478291421726638e+01 -1.1153577322286299e+02 0 0 0
4747 190 4 0.0000000000000000e+00 -1.4209583238755636e+02 -8.5049849622534865e+01 -1.0630067376555206e+02 0 0 0
4745 190 4 0.0000000000000000e+00 -1.2523941445280283e+02 -8.0627259731691339e+01 -1.1284638083272677e+02 0 0 0
4746 190 4 0.0000000000000000e+00 -1.3495795349399964e+02 -7.9509179664285895e+01 -1.1111496409986306e+02 0 0 0
4744 190 3 0.0000000000000000e+00 -1.1528564631576464e+02 -7.8562685953195469e+01 -1.1314136893160240e+02 0 0 0
4743 190 4 0.0000000000000000e+00 -1.0679238907179943e+02 -8.3932177447870004e+01 -1.1413522174025064e+02 0 0 0
509 21 2 0.0000000000000000e+00 -8.5835701338300623e+01 -7.3157925946046760e+01 -1.1053488271353712e+02 0 0 0
414 17 2 0.0000000000000000e+00 -5.4933947952122807e+01 -8.3807118827695476e+01 -1.1821572884445779e+02 0 0 0
3110 125 4 0.0000000000000000e+00 -4.8947310509239756e+01 -7.6864286591648522e+01 -1.0748777503784376e+02 0 0 0
3111 125 4 0.0000000000000000e+00 -4.0981426035993650e+01 -8.1139675137079450e+01 -1.1180171967258829e+02 0 0 0
511 21 2 0.0000000000000000e+00 -1.0084010961610983e+02 -6.4562475380599011e+01 -1.1277303836984457e+02 0 0 0
510 21 2 0.0000000000000000e+00 -9.4919950335282323e+01 -7.2217786765792354e+01 -1.1386909174302708e+02 0 0 0
724 29 2 0.0000000000000000e+00 -8.8254973459373034e+01 -6.3078274326143962e+01 -1.0995716361668639e+02 0 0 0
725 29 1 0.0000000000000000e+00 -8.1423440090473790e+01 -6.6054550621003756e+01 -1.1707745142854196e+02 0 0 0
508 21 2 0.0000000000000000e+00 -7.6723669976213827e+01 -7.0173430383705650e+01 -1.0617196455330009e+02 0 0 0
512 21 2 0.0000000000000000e+00 -1.0087241189018897e+02 -5.4771407489698738e+01 -1.1482433017423232e+02 0 0 0
513 21 1 0.0000000000000000e+00 -1.0091924544063011e+02 -4.6051282407247569e+01 -1.0960681231638905e+02 0 0 0
2985 120 4 0.0000000000000000e+00 -6.9125377455817045e+01 -4.7889410238920966e+01 -1.0696329071208666e+02 0 0 0
3707 149 3 0.0000000000000000e+00 -9.8718343422069111e+01 -3.8514099265047697e+01 -1.1834151223659184e+02 0 0 0
979 40 2 0.0000000000000000e+00 -8.0821201538534950e+01 -3.9389036887270741e+01 -1.0977825695338265e+02 0 0 0
2984 120 4 0.0000000000000000e+00 -6.6103911488545691e+01 -4.4507654696345959e+01 -1.1584058441014727e+02 0 0 0
4857 195 3 0.0000000000000000e+00 -6.9734822471122598e+01 -1.3324386832358152e+02 -9.5725225545304582e+01 0 0 0
4858 195 4 0.0000000000000000e+00 -6.7296858625937205e+01 -1.2992135916738746e+02 -1.0517473130976353e+02 0 0 0
1404 57 2 0.0000000000000000e+00 -1.0130016095001386e+02 -1.1507895292039494e+02 -9.9673065753926664e+01 0 0 0
4860 195 4 0.0000000000000000e+00 -5.5198617741808022e+01 -1.1450190549628103e+02 -1.0442462955682066e+02 0 0 0
1408 57 2 0.0000000000000000e+00 -7.0840124355281645e+01 -1.0226644942525198e+02 -1.0158004393971373e+02 0 0 0
4748 190 4 0.0000000000000000e+00 -1.4563062938419284e+02 -8.7356811111602809e+01 -9.6845809418444972e+01 0 0 0
3979 160 4 0.0000000000000000e+00 -1.2017526030295183e+02 -8.7997910603604012e+01 -1.0142085605385959e+02 0 0 0
3980 160 4 0.0000000000000000e+00 -1.1187124633358164e+02 -9.2201525159274539e+01 -9.8436614855992858e+01 0 0 0
4393 176 4 0.0000000000000000e+00 -9.8199572611370414e+01 -9.0348772781090261e+01 -9.4944953695537734e+01 0 0 0
3104 125 4 0.0000000000000000e+00 -7.6908490334262652e+01 -9.3480635499496572e+01 -1.0482342098356095e+02 0 0 0
3105 125 4 0.0000000000000000e+00 -7.8165673131651971e+01 -8.9089607061586193e+01 -9.6167507872274840e+01 0 0 0
1409 57 2 0.0000000000000000e+00 -6.5409769767844892e+01 -9.5034762715463955e+01 -9.6719330888634190e+01 0 0 0
412 17 2 0.0000000000000000e+00 -4.5665282412346180e+01 -8.8379615370930722e+01 -1.0346041259649343e+02 0 0 0
411 17 2 0.0000000000000000e+00 -4.0062069555168506e+01 -8.8872298863855178e+01 -9.5622196725927921e+01 0 0 0
3656 147 4 0.0000000000000000e+00 -2.5759747446749138e+01 -8.9876446017530057e+01 -1.0383604958284396e+02 0 0 0
126 6 1 0.0000000000000000e+00 -1.5691997378457091e+02 -8.1797401020211794e+01 -9.1750481400600592e+01 0 0 0
4395 176 4 0.0000000000000000e+00 -1.0545701643304827e+02 -7.6034192638760288e+01 -1.0441336436094070e+02 0 0 0
4394 176 3 0.0000000000000000e+00 -1.0326138080933217e+02 -8.5701599083265720e+01 -1.0200131167360031e+02 0 0 0
722 29 2 0.0000000000000000e+00 -8.3619874411737527e+01 -7.6205435775361906e+01 -9.5824925275216486e+01 0 0 0
721 29 2 0.0000000000000000e+00 -9.2024974194468186e+01 -8.0908294109734683e+01 -9.1978585558277658e+01 0 0 0
1419 57 1 0.0000000000000000e+00 -4.3008370526944105e+01 -7.7758533921011292e+01 -9.7759478199582631e+01 0 0 0
3112 125 4 0.0000000000000000e+00 -3.5125085805152480e+01 -7.9852298509718878e+01 -1.0409993417488363e+02 0 0 0
3113 125 3 0.0000000000000000e+00 -3.2175544295979201e+01 -7.8560170229380219e+01 -9.4587691284119757e+01 0 0 0
3657 147 3 0.0000000000000000e+00 -1.9896037535648798e+01 -8.3018919542022530e+01 -1.0027610625243466e+02 0 0 0
516 21 2 0.0000000000000000e+00 -1.1843011814369875e+02 -5.9802936937635842e+01 -9.2213666102851036e+01 0 0 0
4396 176 4 0.0000000000000000e+00 -9.8249438856539754e+01 -6.9539373141556027e+01 -1.0328839886154377e+02 0 0 0
4397 176 4 0.0000000000000000e+00 -9.6798774944588502e+01 -6.0155222231198969e+01 -1.0076829821228065e+02 0 0 0
4398 176 4 0.0000000000000000e+00 -1.0245643967032819e+02 -6.3973193994000397e+01 -9.3672259493577002e+01 0 0 0
723 29 2 0.0000000000000000e+00 -8.5972687408905131e+01 -6.8432073602964905e+01 -1.0205695313360965e+02 0 0 0
507 21 1 0.0000000000000000e+00 -7.0975251423492338e+01 -6.9569100370061918e+01 -9.8222031134824391e+01 0 0 0
3108 125 4 0.0000000000000000e+00 -6.0064490568969767e+01 -7.1762199893394097e+01 -9.5675076720366874e+01 0 0 0
3109 125 4 0.0000000000000000e+00 -5.5533821565225139e+01 -6.9736839808392219e+01 -1.0483102670852266e+02 0 0 0
1418 57 2 0.0000000000000000e+00 -5.0557222991926984e+01 -7.0678950319205612e+01 -9.5298644245379705e+01 0 0 0
515 21 2 0.0000000000000000e+00 -1.1128659672401874e+02 -5.3707929861936847e+01 -9.6961490692708153e+01 0 0 0
514 21 2 0.0000000000000000e+00 -1.0511228138171818e+02 -4.6081720146537386e+01 -1.0041721158114238e+02 0 0 0
977 40 2 0.0000000000000000e+00 -8.9502587416535974e+01 -4.5353121003713838e+01 -9.2781292379420819e+01 0 0 0
2986 120 4 0.0000000000000000e+00 -6.7624200186133891e+01 -5.0584612796449150e+01 -9.7056999563777765e+01 0 0 0
3711 149 4 0.0000000000000000e+00 -1.1675347002515252e+02 -3.7216835461283488e+01 -9.7741739444356597e+01 0 0 0
978 40 2 0.0000000000000000e+00 -8.3817195024641904e+01 -4.4788159733629399e+01 -1.0206746149530458e+02 0 0 0
627 26 2 0.0000000000000000e+00 -1.7301687603018365e+01 -4.1288023769746189e+01 -9.4423192323230140e+01 0 0 0
4856 195 4 0.0000000000000000e+00 -6.9019326373367974e+01 -1.3306422401236844e+02 -8.5433415610456251e+01 0 0 0
1403 57 2 0.0000000000000000e+00 -1.0278904474385159e+02 -1.1503773996730169e+02 -8.9558994070850289e+01 0 0 0
1402 57 2 0.0000000000000000e+00 -1.0914990004905214e+02 -1.1329363005542116e+02 -8.1309931761144398e+01 0 0 0
4749 190 4 0.0000000000000000e+00 -1.4847152017881416e+02 -8.9199752701053612e+01 -8.7236813558049718e+01 0 0 0
3981 160 4 0.0000000000000000e+00 -1.0944080503229441e+02 -9.3777736748892764e+01 -8.8183601602007798e+01 0 0 0
3982 160 3 0.0000000000000000e+00 -1.0509277437880398e+02 -9.4985104156503439e+01 -7.8233707543488777e+01 0 0 0
4392 176 4 0.0000000000000000e+00 -8.9944550486432732e+01 -9.3168369369345683e+01 -9.1024616169580682e+01 0 0 0
720 29 2 0.0000000000000000e+00 -9.3631823179247107e+01 -8.6602125399682777e+01 -8.4503998849539300e+01 0 0 0
4391 176 4 0.0000000000000000e+00 -8.1469623903978359e+01 -9.3797881889761427e+01 -8.5098635757198750e+01 0 0 0
4390 176 4 0.0000000000000000e+00 -7.2563415051291486e+01 -9.2205864996233686e+01 -8.1206062394188621e+01 0 0 0
1410 57 2 0.0000000000000000e+00 -5.9111780431356266e+01 -8.9977229135530663e+01 -9.0332146519136970e+01 0 0 0
1411 57 2 0.0000000000000000e+00 -6.2861487301447468e+01 -8.8112362672211404e+01 -8.1391762556444405e+01 0 0 0
410 17 2 0.0000000000000000e+00 -3.3466696513281882e+01 -9.1085117661955238e+01 -8.8374668431265931e+01 0 0 0
409 17 2 0.0000000000000000e+00 -2.3413606373373913e+01 -9.0265857783815804e+01 -8.6562963259055181e+01 0 0 0
127 6 2 0.0000000000000000e+00 -1.6490432845725263e+02 -7.7276489976036132e+01 -8.8263166098216985e+01 0 0 0
4750 190 3 0.0000000000000000e+00 -1.5472146162684999e+02 -8.4259709306468082e+01 -8.1213022389549891e+01 0 0 0
266 11 2 0.0000000000000000e+00 -8.5673483575334458e+01 -7.6278982089027309e+01 -8.0138799248607000e+01 0 0 0
3106 125 4 0.0000000000000000e+00 -7.2680354089906686e+01 -8.3064702677969990e+01 -9.0197330462854126e+01 0 0 0
504 21 2 0.0000000000000000e+00 -7.5822926042662814e+01 -8.0250604613604551e+01 -7.8584064294139381e+01 0 0 0
3107 125 3 0.0000000000000000e+00 -6.7034403396745489e+01 -7.4733354411592529e+01 -8.8864043643543511e+01 0 0 0
1420 57 2 0.0000000000000000e+00 -3.9719848637458547e+01 -7.3123414058166276e+01 -8.9102163153235722e+01 0 0 0
3114 125 4 0.0000000000000000e+00 -2.8605713392027038e+01 -8.0473342626038644e+01 -8.5406014107220017e+01 0 0 0
128 6 2 0.0000000000000000e+00 -1.6611174942001799e+02 -6.8452295601698523e+01 -8.3454187425984742e+01 0 0 0
129 6 2 0.0000000000000000e+00 -1.7099332515543188e+02 -5.9393150381139570e+01 -8.2746101413715536e+01 0 0 0
517 21 2 0.0000000000000000e+00 -1.1833339337016025e+02 -6.3247706800640906e+01 -8.2806151720639903e+01 0 0 0
4399 176 4 0.0000000000000000e+00 -1.0557268222974338e+02 -7.0486240526746457e+01 -8.7131267855777679e+01 0 0 0
265 11 2 0.0000000000000000e+00 -8.7693366914182661e+01 -6.7986184830446263e+01 -8.6002722718147979e+01 0 0 0
505 21 2 0.0000000000000000e+00 -7.6149327467943579e+01 -7.1076967531092919e+01 -8.3218861001584443e+01 0 0 0
506 21 2 0.0000000000000000e+00 -7.7059266112114855e+01 -6.4530797254132224e+01 -9.1049580606897479e+01 0 0 0
1417 57 2 0.0000000000000000e+00 -5.3556903360342176e+01 -6.2934839223029932e+01 -8.9543455843891266e+01 0 0 0
1416 57 2 0.0000000000000000e+00 -4.6851848163642664e+01 -6.0043338575113630e+01 -8.2726711109604906e+01 0 0 0
1421 57 2 0.0000000000000000e+00 -4.0090014643863853e+01 -7.1817908638077427e+01 -7.9261106684855392e+01 0 0 0
130 6 2 0.0000000000000000e+00 -1.6908870598912191e+02 -4.9801378525114082e+01 -7.9402348080730206e+01 0 0 0
264 11 2 0.0000000000000000e+00 -8.5176254973757736e+01 -5.7680911515800261e+01 -8.6446941508927480e+01 0 0 0
263 11 1 0.0000000000000000e+00 -8.1229220958580058e+01 -4.9932127841131425e+01 -8.2227331435425171e+01 0 0 0
2988 120 3 0.0000000000000000e+00 -7.4275795917808935e+01 -5.8559133408050606e+01 -8.0407920050909723e+01 0 0 0
2987 120 4 0.0000000000000000e+00 -6.8878004485732887e+01 -5.3492087008302519e+01 -8.7311969891039084e+01 0 0 0
626 26 1 0.0000000000000000e+00 -1.8497124060812368e+01 -4.8421382845290267e+01 -8.7296234299048052e+01 0 0 0
3712 149 4 0.0000000000000000e+00 -1.1456584217456172e+02 -3.9363112862391532e+01 -8.8072435782455017e+01 0 0 0
3713 149 3 0.0000000000000000e+00 -1.0564400588236418e+02 -3.5918312447024100e+01 -8.5027977842714520e+01 0 0 0
976 40 1 0.0000000000000000e+00 -9.8659573653805481e+01 -4.3956396482090192e+01 -9.0469620292850394e+01 0 0 0
4855 195 4 0.0000000000000000e+00 -6.7886961347490782e+01 -1.2720392567491086e+02 -7.7449828494483555e+01 0 0 0
4854 195 4 0.0000000000000000e+00 -6.0079081419982082e+01 -1.2224234265981632e+02 -7.2835118333879493e+01 0 0 0
4853 195 4 0.0000000000000000e+00 -5.4242033506635437e+01 -1.1422630374605478e+02 -6.9925320235618457e+01 0 0 0
3000 120 3 0.0000000000000000e+00 -1.1015844382373878e+02 -1.1356882220665437e+02 -6.8486203330843750e+01 0 0 0
1401 57 1 0.0000000000000000e+00 -1.1178449343945330e+02 -1.0550123718298227e+02 -7.5873083706166000e+01 0 0 0
501 21 1 0.0000000000000000e+00 -6.7688255109222823e+01 -1.0374301159616567e+02 -6.6005938233956158e+01 0 0 0
4852 195 4 0.0000000000000000e+00 -4.9945324316080310e+01 -1.0587111617727794e+02 -6.5415825677679607e+01 0 0 0
4851 195 3 0.0000000000000000e+00 -4.1017957840466245e+01 -1.1028019839180314e+02 -6.7643658849745464e+01 0 0 0
1458 59 2 0.0000000000000000e+00 -2.7823837357378974e+01 -1.0063286399938349e+02 -6.8203106373340034e+01 0 0 0
3983 160 4 0.0000000000000000e+00 -1.0641572669402140e+02 -9.1939329760795573e+01 -6.8880436633979201e+01 0 0 0
719 29 1 0.0000000000000000e+00 -9.8769647412286403e+01 -8.6581083337728515e+01 -7.5924578803960273e+01 0 0 0
502 21 2 0.0000000000000000e+00 -7.3997707001249665e+01 -9.7811654043231400e+01 -7.0397291505296920e+01 0 0 0
503 21 2 0.0000000000000000e+00 -7.7660043010108851e+01 -8.8882968239245372e+01 -7.3258174763774846e+01 0 0 0
4388 176 3 0.0000000000000000e+00 -6.2133417043549656e+01 -9.3792570265556279e+01 -6.8563068013473668e+01 0 0 0
4389 176 4 0.0000000000000000e+00 -6.6583496577961370e+01 -9.9039146811735776e+01 -7.6189621107457498e+01 0 0 0
4387 176 4 0.0000000000000000e+00 -5.4145996300446882e+01 -8.8316953865358528e+01 -6.6864473920236634e+01 0 0 0
1459 59 2 0.0000000000000000e+00 -3.1361230100268088e+01 -9.1881993798003649e+01 -6.4564049712889698e+01 0 0 0
519 21 1 0.0000000000000000e+00 -1.1289389880443444e+02 -7.2754633522765005e+01 -6.7183431557065788e+01 0 0 0
718 29 2 0.0000000000000000e+00 -9.9895590668558626e+01 -8.2990876175046125e+01 -6.6616612686725816e+01 0 0 0
4400 176 3 0.0000000000000000e+00 -1.0787638175527928e+02 -7.3715567503893411e+01 -7.7680526806645219e+01 0 0 0
267 11 2 0.0000000000000000e+00 -8.4935987721075634e+01 -7.6862430936558411e+01 -7.0123617675601764e+01 0 0 0
268 11 2 0.0000000000000000e+00 -7.9665145310668237e+01 -8.4299771601268347e+01 -6.5282747168861107e+01 0 0 0
2991 120 4 0.0000000000000000e+00 -6.8255189762611977e+01 -7.4166530823804223e+01 -6.9022183990408607e+01 0 0 0
1412 57 2 0.0000000000000000e+00 -6.1792288149329174e+01 -7.9989547418501459e+01 -7.6358059843129439e+01 0 0 0
2992 120 4 0.0000000000000000e+00 -6.0922828995132392e+01 -7.9868321847218652e+01 -6.5487405875433922e+01 0 0 0
3115 125 4 0.0000000000000000e+00 -2.7405516877454691e+01 -7.6347869345726934e+01 -7.5933129236322486e+01 0 0 0
1461 59 2 0.0000000000000000e+00 -2.1895048552071959e+01 -8.3828101624673963e+01 -6.8338215174737584e+01 0 0 0
518 21 2 0.0000000000000000e+00 -1.1710267789984238e+02 -6.6076977435837804e+01 -7.2869576692969233e+01 0 0 0
2990 120 4 0.0000000000000000e+00 -7.6062613234238484e+01 -6.7957424999124072e+01 -6.6775296160792550e+01 0 0 0
2989 120 4 0.0000000000000000e+00 -8.0501390064052060e+01 -6.1279779945294315e+01 -7.2470769426474590e+01 0 0 0
4363 175 3 0.0000000000000000e+00 -5.9948005185815958e+01 -6.1574185894050800e+01 -7.3036518985806296e+01 0 0 0
1413 57 1 0.0000000000000000e+00 -5.5393251542837319e+01 -7.1545702178312993e+01 -7.6619136925057219e+01 0 0 0
1414 57 2 0.0000000000000000e+00 -5.1094970643116277e+01 -6.6337085501162733e+01 -6.8832202521923122e+01 0 0 0
1415 57 2 0.0000000000000000e+00 -4.4385832788101666e+01 -6.0208538866614155e+01 -7.3304155611335958e+01 0 0 0
1422 57 2 0.0000000000000000e+00 -3.5804375720088537e+01 -6.8718045562773497e+01 -7.0525376696618252e+01 0 0 0
3116 125 4 0.0000000000000000e+00 -2.7434979427513348e+01 -6.6221593575314657e+01 -7.6128224830848424e+01 0 0 0
4364 175 4 0.0000000000000000e+00 -5.2545807673489875e+01 -5.5440140099005973e+01 -7.6220041110741960e+01 0 0 0
4365 175 4 0.0000000000000000e+00 -4.5040007400425537e+01 -4.9706578747585077e+01 -7.2156071312900124e+01 0 0 0
3118 125 4 0.0000000000000000e+00 -2.2411787467912589e+01 -4.7884992200939294e+01 -7.6382498492324800e+01 0 0 0
3117 125 4 0.0000000000000000e+00 -2.6839984356398745e+01 -5.6488224389854217e+01 -7.6184493002670436e+01 0 0 0
131 6 2 0.0000000000000000e+00 -1.6458806136479311e+02 -4.2443121803302347e+01 -7.3528908602434271e+01 0 0 0
3075 123 3 0.0000000000000000e+00 -1.5171290137061587e+02 -3.6477794744583164e+01 -6.7380552393570440e+01 0 0 0
132 6 1 0.0000000000000000e+00 -1.6223873312630590e+02 -3.8425891770670766e+01 -6.4731244686919240e+01 0 0 0
3714 149 4 0.0000000000000000e+00 -1.0091737755966960e+02 -3.4237060342664890e+01 -7.6617692902145834e+01 0 0 0
262 11 2 0.0000000000000000e+00 -7.7353464066545925e+01 -4.2459718543707702e+01 -7.7013691062534591e+01 0 0 0
261 11 2 0.0000000000000000e+00 -6.9054699147184877e+01 -3.7885846263989094e+01 -7.3133689157798315e+01 0 0 0
260 11 2 0.0000000000000000e+00 -6.0573124533109365e+01 -3.3667789818872158e+01 -7.0042247068932355e+01 0 0 0
637 26 2 0.0000000000000000e+00 -2.6483218842301454e+01 -3.4763963791591394e+01 -7.2547856680285946e+01 0 0 0