LAMMPS data file via write_data, version 5 Jun 2019, timestep = 370000000

5000 atoms
4 atom types
5234 bonds
3 bond types
4600 angles
2 angle types

-5.0000000000000000e+02 5.0000000000000000e+02 xlo xhi
-5.0000000000000000e+02 5.0000000000000000e+02 ylo yhi
-5.0000000000000000e+02 5.0000000000000000e+02 zlo zhi

Masses

1 1000
2 1000
3 1000
4 1000

Pair Coeffs # lj/cut

1 0.18 10
2 0.18 10
3 0.18 10
4 0.18 10

Bond Coeffs # harmonic

1 3 10
2 3 10
3 1.8 11.22

Angle Coeffs # cosine

1 2
2 2

Atoms # full

4456 179 4 0.0000000000000000e+00 2.1081760336804710e+01 -8.0506277608926069e+01 -2.1485585869486229e+02 0 0 0
846 34 2 0.0000000000000000e+00 -9.4058448062707818e+00 -8.7127967567763974e+01 -2.0489751565562577e+02 0 0 0
845 34 2 0.0000000000000000e+00 -4.9633269516724854e-01 -8.5191264095420976e+01 -2.0148337554187455e+02 0 0 0
844 34 1 0.0000000000000000e+00 9.6615104301080503e+00 -8.2691097168455244e+01 -2.0019425485916506e+02 0 0 0
4458 179 4 0.0000000000000000e+00 8.2073321869818798e+00 -7.3272129709021968e+01 -2.0879942636472688e+02 0 0 0
4457 179 3 0.0000000000000000e+00 1.2258999873440198e+01 -8.2612579126504173e+01 -2.1150312213232817e+02 0 0 0
843 34 2 0.0000000000000000e+00 1.8098616708799419e+01 -7.7439383001884337e+01 -2.0069525603711131e+02 0 0 0
4459 179 4 0.0000000000000000e+00 1.7163481392611097e+01 -6.8575466923362654e+01 -2.0630291894505720e+02 0 0 0
4553 183 4 0.0000000000000000e+00 -1.8752420137918577e+01 -1.2919328959018250e+02 -1.8797732522284917e+02 0 0 0
4552 183 4 0.0000000000000000e+00 -1.2642006443253958e+01 -1.3665160370451929e+02 -1.8740117228559296e+02 0 0 0
4551 183 3 0.0000000000000000e+00 -2.2460151973775826e+00 -1.3683009407428992e+02 -1.8597562775352733e+02 0 0 0
4554 183 4 0.0000000000000000e+00 -2.3961881441814914e+01 -1.2058064865001229e+02 -1.8751008749997334e+02 0 0 0
835 34 2 0.0000000000000000e+00 4.4525458595325489e+00 -1.1936253460718227e+02 -1.8789540383628494e+02 0 0 0
838 34 1 0.0000000000000000e+00 2.1720083579248811e+01 -1.0094216367688989e+02 -1.8586716523040309e+02 0 0 0
847 34 2 0.0000000000000000e+00 -1.2527906678525284e+01 -8.3599343474362243e+01 -1.9627965706528130e+02 0 0 0
848 34 2 0.0000000000000000e+00 -7.0659031673314310e+00 -8.1950957766378579e+01 -1.8755967643375607e+02 0 0 0
842 34 2 0.0000000000000000e+00 2.4555263030046120e+01 -7.8020931348106259e+01 -1.9291711300853686e+02 0 0 0
4460 179 4 0.0000000000000000e+00 1.9863873163425819e+01 -6.3726286159374212e+01 -1.9810436955178486e+02 0 0 0
832 34 1 0.0000000000000000e+00 3.4437117198723817e+00 -1.4179092991584801e+02 -1.7686457686138303e+02 0 0 0
833 34 2 0.0000000000000000e+00 4.3731535258235805e+00 -1.3163659834081426e+02 -1.7468511061337287e+02 0 0 0
4733 190 4 0.0000000000000000e+00 -6.7280637586137843e+01 -1.1527824945013097e+02 -1.7477912269357739e+02 0 0 0
834 34 2 0.0000000000000000e+00 1.6843663430912272e+00 -1.2340981233549093e+02 -1.7922326437299438e+02 0 0 0
4735 190 4 0.0000000000000000e+00 -7.2930122004019339e+01 -1.0122492241982593e+02 -1.7733209044464303e+02 0 0 0
4734 190 4 0.0000000000000000e+00 -6.4364258670342821e+01 -1.0553968818843261e+02 -1.7392809889041678e+02 0 0 0
4555 183 4 0.0000000000000000e+00 -2.6245007025886999e+01 -1.1227531353422727e+02 -1.8198684879126702e+02 0 0 0
4556 183 4 0.0000000000000000e+00 -2.5147388455796246e+01 -1.0906651189374399e+02 -1.7202662897494002e+02 0 0 0
836 34 2 0.0000000000000000e+00 1.0094075304653671e+01 -1.1223035398210673e+02 -1.8387767674438166e+02 0 0 0
837 34 2 0.0000000000000000e+00 2.0058374943583249e+01 -1.0999852237980905e+02 -1.8169780531360814e+02 0 0 0
4737 190 4 0.0000000000000000e+00 -8.6001630285628636e+01 -8.8294996862725981e+01 -1.7910212443112923e+02 0 0 0
4736 190 4 0.0000000000000000e+00 -7.7143587009336542e+01 -9.2556655118079505e+01 -1.7791911815413650e+02 0 0 0
4738 190 3 0.0000000000000000e+00 -8.0958281040077267e+01 -8.1302845259786224e+01 -1.7282508363107277e+02 0 0 0
3025 121 3 0.0000000000000000e+00 -3.1083535205813568e+01 -7.8195517515156112e+01 -1.7776924744795824e+02 0 0 0
850 34 1 0.0000000000000000e+00 -1.9219467491502488e+01 -7.6572954850524241e+01 -1.7730444646653083e+02 0 0 0
849 34 2 0.0000000000000000e+00 -9.5248948027736304e+00 -7.8646014702695510e+01 -1.7820123528325630e+02 0 0 0
3024 121 4 0.0000000000000000e+00 -2.8719827830971756e+01 -6.9142525861824311e+01 -1.8109569633218513e+02 0 0 0
3023 121 4 0.0000000000000000e+00 -2.2222806710317819e+01 -6.1448311091665460e+01 -1.8060490480340147e+02 0 0 0
3022 121 4 0.0000000000000000e+00 -1.4731137996016910e+01 -6.0873160853088329e+01 -1.7305974792496238e+02 0 0 0
2326 94 1 0.0000000000000000e+00 2.0612046236456390e+01 -7.2257299454770774e+01 -1.7519160353450877e+02 0 0 0
4475 179 3 0.0000000000000000e+00 1.2619761143510768e+01 -6.5386446965107694e+01 -1.7211447078141393e+02 0 0 0
3021 121 4 0.0000000000000000e+00 -1.2115841929081231e+01 -5.0839774010281431e+01 -1.7228787020261717e+02 0 0 0
654 27 2 0.0000000000000000e+00 1.7196389940349913e+01 -4.6202943924409233e+01 -1.7461859338521731e+02 0 0 0
653 27 2 0.0000000000000000e+00 2.4681758865948719e+01 -5.2975850462741974e+01 -1.7261449568014154e+02 0 0 0
3020 121 4 0.0000000000000000e+00 -7.0088950315049061e+00 -4.2027989488216946e+01 -1.7345693461786368e+02 0 0 0
3019 121 3 0.0000000000000000e+00 -9.8182942129998851e-01 -3.3795148564558559e+01 -1.7357436718986659e+02 0 0 0
829 34 2 0.0000000000000000e+00 -1.6341407325283733e+01 -1.5424232199464510e+02 -1.6086388809073293e+02 0 0 0
830 34 2 0.0000000000000000e+00 -8.1639092968443041e+00 -1.5012275640020951e+02 -1.6409607697845530e+02 0 0 0
831 34 2 0.0000000000000000e+00 -7.1592127975081954e-01 -1.4736085918953410e+02 -1.6935944645414864e+02 0 0 0
4728 190 4 0.0000000000000000e+00 -9.2550590317003056e+01 -1.1698746772451751e+02 -1.6519391253161029e+02 0 0 0
4732 190 3 0.0000000000000000e+00 -7.2112300376931543e+01 -1.1759664301605999e+02 -1.6634930920158635e+02 0 0 0
4729 190 4 0.0000000000000000e+00 -8.6402499510129715e+01 -1.1323518722433050e+02 -1.7193573655803118e+02 0 0 0
4731 190 4 0.0000000000000000e+00 -7.5434574461587985e+01 -1.0875579750789801e+02 -1.6251201284983151e+02 0 0 0
4730 190 4 0.0000000000000000e+00 -8.0361751448136403e+01 -1.0542337890453905e+02 -1.7053756137150754e+02 0 0 0
4557 183 3 0.0000000000000000e+00 -2.0878991743517322e+01 -1.0699902313499003e+02 -1.6344298817590388e+02 0 0 0
425 17 1 0.0000000000000000e+00 -8.7444654799266857e+01 -8.6813520716090991e+01 -1.6467511497693050e+02 0 0 0
407 17 1 0.0000000000000000e+00 -2.4830258339740986e+01 -9.7164755613254698e+01 -1.5976736851788755e+02 0 0 0
406 17 2 0.0000000000000000e+00 -2.7210826620736544e+01 -8.8226525520884550e+01 -1.6392319532311808e+02 0 0 0
424 17 2 0.0000000000000000e+00 -8.8634731680094674e+01 -7.6444663145171390e+01 -1.6563328563393333e+02 0 0 0
4739 190 4 0.0000000000000000e+00 -7.8212874533993201e+01 -7.9443945322998985e+01 -1.6358012871423318e+02 0 0 0
405 17 2 0.0000000000000000e+00 -2.7499499042593243e+01 -7.9130281260619768e+01 -1.6716852035387691e+02 0 0 0
423 17 2 0.0000000000000000e+00 -9.3284656901778874e+01 -6.8029687021497196e+01 -1.6309849392335735e+02 0 0 0
403 17 2 0.0000000000000000e+00 -2.9933276139094801e+01 -6.0449078919038101e+01 -1.6742926080673260e+02 0 0 0
404 17 2 0.0000000000000000e+00 -2.7409723454528581e+01 -6.9513894309085188e+01 -1.7016333579924716e+02 0 0 0
4474 179 4 0.0000000000000000e+00 1.9525250936485421e+01 -5.9150345818427482e+01 -1.6732435058933174e+02 0 0 0
402 17 2 0.0000000000000000e+00 -2.5054080854176792e+01 -5.2106791725628476e+01 -1.6446836786251620e+02 0 0 0
401 17 1 0.0000000000000000e+00 -2.4024139166732436e+01 -4.3063860745352322e+01 -1.6106467807194926e+02 0 0 0
657 27 1 0.0000000000000000e+00 1.3299806134502232e+00 -4.1965513966923403e+01 -1.6588663939056352e+02 0 0 0
656 27 2 0.0000000000000000e+00 1.0786990752993711e+01 -4.2069403036219384e+01 -1.6973516407753419e+02 0 0 0
655 27 2 0.0000000000000000e+00 1.9667613854006095e+01 -4.3945769987829550e+01 -1.6479358499908730e+02 0 0 0
828 34 2 0.0000000000000000e+00 -9.2440338682206029e+00 -1.5687673675898122e+02 -1.5390025958641937e+02 0 0 0
827 34 2 0.0000000000000000e+00 -4.6133029985191492e+00 -1.5916587666825791e+02 -1.4508469647576715e+02 0 0 0
1440 58 2 0.0000000000000000e+00 -5.5761287867053717e+01 -1.2829131215213030e+02 -1.4729658117028202e+02 0 0 0
1439 58 2 0.0000000000000000e+00 -4.8332051054860372e+01 -1.3616567021221823e+02 -1.4769532555925389e+02 0 0 0
1450 58 1 0.0000000000000000e+00 -8.9283379755863265e+01 -1.1429241781712393e+02 -1.4684214979604235e+02 0 0 0
4727 190 4 0.0000000000000000e+00 -9.7500367685993425e+01 -1.1306307484784537e+02 -1.5693448763864322e+02 0 0 0
4726 190 3 0.0000000000000000e+00 -9.8760882578168676e+01 -1.0960810320316010e+02 -1.4732284482893476e+02 0 0 0
1449 58 2 0.0000000000000000e+00 -8.7018920061654399e+01 -1.0683639229535706e+02 -1.5294732590424954e+02 0 0 0
1446 58 2 0.0000000000000000e+00 -7.2662420731401824e+01 -1.0157888584431333e+02 -1.4489589891629768e+02 0 0 0
408 17 2 0.0000000000000000e+00 -3.1329079660015761e+01 -1.0270669769582267e+02 -1.5565495788878496e+02 0 0 0
409 17 2 0.0000000000000000e+00 -3.5372103211207481e+01 -1.0396370209274302e+02 -1.4696844849347733e+02 0 0 0
4558 183 4 0.0000000000000000e+00 -1.9917107110050903e+01 -1.0703705878246333e+02 -1.5340764562591511e+02 0 0 0
1448 58 2 0.0000000000000000e+00 -8.5019175904135594e+01 -9.7021163466577732e+01 -1.5402096295454629e+02 0 0 0
1447 58 2 0.0000000000000000e+00 -8.0184574298628050e+01 -9.4826055481789638e+01 -1.4506704856533651e+02 0 0 0
1433 58 2 0.0000000000000000e+00 -2.6543761885807655e+01 -9.5895709438552416e+01 -1.4892694872552158e+02 0 0 0
1432 58 1 0.0000000000000000e+00 -2.6996519138533625e+01 -8.7047992283865725e+01 -1.5271345084039461e+02 0 0 0
4563 183 3 0.0000000000000000e+00 3.4025697997076483e+00 -8.7243803003037655e+01 -1.4632736096182413e+02 0 0 0
2156 87 2 0.0000000000000000e+00 1.4313736890653697e+01 -9.0809463814413718e+01 -1.5001984785173585e+02 0 0 0
4740 190 4 0.0000000000000000e+00 -7.9251484613978391e+01 -7.4799610568367996e+01 -1.5443594752683370e+02 0 0 0
1431 58 2 0.0000000000000000e+00 -2.5707361737468922e+01 -7.7278210828899006e+01 -1.5452299433511888e+02 0 0 0
3658 147 4 0.0000000000000000e+00 -1.5110126553441320e+01 -8.1933747854722014e+01 -1.4579419298068680e+02 0 0 0
3659 147 4 0.0000000000000000e+00 -6.8072023559823860e+00 -7.5994842572360596e+01 -1.4705123095642455e+02 0 0 0
4564 183 4 0.0000000000000000e+00 3.6459627917374267e+00 -7.7621276547450563e+01 -1.4891017275651328e+02 0 0 0
422 17 2 0.0000000000000000e+00 -9.7720102760335593e+01 -6.8772176898697083e+01 -1.5374695250676362e+02 0 0 0
4742 190 4 0.0000000000000000e+00 -8.7177896773992259e+01 -6.3443031161621512e+01 -1.4586207608465037e+02 0 0 0
4741 190 4 0.0000000000000000e+00 -7.8989940656394452e+01 -6.5126191461250272e+01 -1.5068671977654370e+02 0 0 0
4868 195 4 0.0000000000000000e+00 -4.8244703222743610e+01 -6.4916179906667239e+01 -1.5323923550285420e+02 0 0 0
1429 58 2 0.0000000000000000e+00 -2.7326158488249767e+01 -6.0251195432143120e+01 -1.5031703207743308e+02 0 0 0
1430 58 2 0.0000000000000000e+00 -2.6517530512475091e+01 -6.7444412105926105e+01 -1.5746558787592804e+02 0 0 0
4566 183 4 0.0000000000000000e+00 -6.6201275703108937e+00 -6.3498081876130982e+01 -1.5757649498176389e+02 0 0 0
4565 183 4 0.0000000000000000e+00 -4.9638331647785311e-01 -6.8678030399418489e+01 -1.5087276972417609e+02 0 0 0
4870 195 4 0.0000000000000000e+00 -5.8291392079399770e+01 -5.0007878789408643e+01 -1.4953770025186836e+02 0 0 0
4869 195 3 0.0000000000000000e+00 -5.0216924816271536e+01 -5.5847341087415799e+01 -1.5148161728494242e+02 0 0 0
1428 58 2 0.0000000000000000e+00 -3.1349493944130163e+01 -5.1279980357813187e+01 -1.5163800810228344e+02 0 0 0
4568 183 4 0.0000000000000000e+00 -1.8071789866781909e+01 -4.9534009537752240e+01 -1.5254573574772027e+02 0 0 0
4567 183 4 0.0000000000000000e+00 -1.4804359670786003e+01 -5.7343313563810717e+01 -1.5803469268621348e+02 0 0 0
1885 76 2 0.0000000000000000e+00 2.0833437148707656e+01 -4.7805521361326740e+01 -1.4773814398452365e+02 0 0 0
1884 76 2 0.0000000000000000e+00 2.2953669172527054e+01 -5.7282235478058624e+01 -1.4565910511015375e+02 0 0 0
4875 195 3 0.0000000000000000e+00 -7.3543403995293275e+01 -3.2539615873806554e+01 -1.5357896822744519e+02 0 0 0
4871 195 4 0.0000000000000000e+00 -5.9309024890312052e+01 -4.0509835045759004e+01 -1.4674903120467982e+02 0 0 0
4569 183 3 0.0000000000000000e+00 -1.5729459924417839e+01 -3.9145807680906159e+01 -1.5512017675503205e+02 0 0 0
1427 58 2 0.0000000000000000e+00 -2.7277018620454580e+01 -4.2318134175317830e+01 -1.5013917455793228e+02 0 0 0
1426 58 1 0.0000000000000000e+00 -1.9449131491844749e+01 -3.7877080117224253e+01 -1.4575331899261315e+02 0 0 0
658 27 2 0.0000000000000000e+00 -2.7736722656367956e+00 -3.9516797006425556e+01 -1.5693660273896435e+02 0 0 0
659 27 2 0.0000000000000000e+00 -6.0363878380603220e-01 -3.2548864777439704e+01 -1.5012134624103294e+02 0 0 0
1886 76 2 0.0000000000000000e+00 1.9468461404393729e+01 -3.7900217313316112e+01 -1.4825254224184641e+02 0 0 0
826 34 1 0.0000000000000000e+00 8.2313994991874539e-01 -1.5119791037150478e+02 -1.4138056933940425e+02 0 0 0
1442 58 2 0.0000000000000000e+00 -6.6417585503123547e+01 -1.2869790754433441e+02 -1.3429893777551737e+02 0 0 0
1438 58 1 0.0000000000000000e+00 -3.9022570892841983e+01 -1.3583139245750684e+02 -1.4379192617142658e+02 0 0 0
1437 58 2 0.0000000000000000e+00 -3.2226741634692544e+01 -1.3008417533253643e+02 -1.3833077968330008e+02 0 0 0
1441 58 2 0.0000000000000000e+00 -6.1561914032591091e+01 -1.2297073501561556e+02 -1.4148427678765270e+02 0 0 0
1436 58 2 0.0000000000000000e+00 -2.7678443001472271e+01 -1.2138458472397699e+02 -1.3994022084776279e+02 0 0 0
1445 58 2 0.0000000000000000e+00 -7.6960524669771914e+01 -1.0667126853306533e+02 -1.3694279612780457e+02 0 0 0
3652 147 4 0.0000000000000000e+00 -6.3123237581618064e+01 -1.0124658028731828e+02 -1.3679370599255648e+02 0 0 0
410 17 2 0.0000000000000000e+00 -3.7559867257462159e+01 -1.0209506181370855e+02 -1.3686268286141970e+02 0 0 0
1435 58 2 0.0000000000000000e+00 -2.7851288734238910e+01 -1.1135401669429612e+02 -1.4167070789706924e+02 0 0 0
1434 58 2 0.0000000000000000e+00 -2.6588140434954937e+01 -1.0133079895211662e+02 -1.4042074100517797e+02 0 0 0
4559 183 4 0.0000000000000000e+00 -1.4684336364631697e+01 -1.0852695084902230e+02 -1.4459390954416256e+02 0 0 0
4560 183 4 0.0000000000000000e+00 -9.2570456952997358e+00 -1.0766739423785877e+02 -1.3631304981676163e+02 0 0 0
4561 183 4 0.0000000000000000e+00 -1.9691187646496364e+00 -1.0059844470504788e+02 -1.3476857989244294e+02 0 0 0
3653 147 4 0.0000000000000000e+00 -5.5224228872811423e+01 -9.7631629444717035e+01 -1.3183378460662072e+02 0 0 0
3655 147 4 0.0000000000000000e+00 -3.8367475722371211e+01 -9.1425079202858925e+01 -1.3418997571234462e+02 0 0 0
3656 147 4 0.0000000000000000e+00 -3.0422144276977924e+01 -8.7282975111677828e+01 -1.3857701811726369e+02 0 0 0
3657 147 3 0.0000000000000000e+00 -2.1602314893043165e+01 -8.8475552559869499e+01 -1.4258479136754011e+02 0 0 0
4562 183 4 0.0000000000000000e+00 -1.7919653102259421e+00 -9.5366687569053227e+01 -1.4360881111664338e+02 0 0 0
2154 87 2 0.0000000000000000e+00 1.5258308560803970e+01 -9.8635230829729153e+01 -1.3279420480113012e+02 0 0 0
4267 171 4 0.0000000000000000e+00 1.3528932798297737e+01 -8.8918972550028826e+01 -1.3351752045676272e+02 0 0 0
2155 87 2 0.0000000000000000e+00 1.8940388723049203e+01 -9.3735082564239477e+01 -1.4060601353163446e+02 0 0 0
419 17 1 0.0000000000000000e+00 -8.6868079985024266e+01 -7.5809898860787740e+01 -1.3177052751704247e+02 0 0 0
420 17 2 0.0000000000000000e+00 -9.4522113700371435e+01 -7.3973833102846868e+01 -1.3730086768634951e+02 0 0 0
4865 195 4 0.0000000000000000e+00 -5.2210825335573979e+01 -7.9275244455628481e+01 -1.3650913332595840e+02 0 0 0
4266 171 4 0.0000000000000000e+00 7.2828592414566620e+00 -8.1993829160690197e+01 -1.3619111559627683e+02 0 0 0
2157 87 1 0.0000000000000000e+00 1.3199926082587643e+01 -8.2442765883129098e+01 -1.4367318896486697e+02 0 0 0
2158 87 2 0.0000000000000000e+00 1.6324836525023628e+01 -7.8444382765286448e+01 -1.3448264848135108e+02 0 0 0
421 17 2 0.0000000000000000e+00 -9.8558163675293343e+01 -6.8325951384628794e+01 -1.4418548887168038e+02 0 0 0
4743 190 4 0.0000000000000000e+00 -8.5873627462658163e+01 -6.4422409485394937e+01 -1.3573118714660410e+02 0 0 0
4866 195 4 0.0000000000000000e+00 -5.6527316660524299e+01 -6.9901171623015045e+01 -1.3742375352676862e+02 0 0 0
4867 195 4 0.0000000000000000e+00 -4.9436528762111159e+01 -6.7378295463333032e+01 -1.4378249639432980e+02 0 0 0
3660 147 4 0.0000000000000000e+00 -2.9266556723411155e+00 -7.0916853447492244e+01 -1.3957050438249709e+02 0 0 0
3661 147 4 0.0000000000000000e+00 -8.9799073957096436e+00 -6.6916149150986968e+01 -1.3249821433025085e+02 0 0 0
4265 171 4 0.0000000000000000e+00 7.9641839064886728e+00 -7.1619495736236814e+01 -1.3438383797577143e+02 0 0 0
4264 171 4 0.0000000000000000e+00 7.0668701855820304e+00 -6.1685850612914294e+01 -1.3711382911871104e+02 0 0 0
674 27 2 0.0000000000000000e+00 -5.1986751044323960e+01 -4.9154970050089254e+01 -1.3533612775184841e+02 0 0 0
675 27 1 0.0000000000000000e+00 -4.5927356462607356e+01 -5.5043627241791761e+01 -1.4064879514844176e+02 0 0 0
4263 171 3 0.0000000000000000e+00 1.0892530306742888e+01 -5.2414605612334690e+01 -1.3454999379306366e+02 0 0 0
1883 76 2 0.0000000000000000e+00 2.0335340106338673e+01 -5.3390979008787909e+01 -1.3667071545024837e+02 0 0 0
4874 195 4 0.0000000000000000e+00 -7.6649863024338046e+01 -3.4395484227353322e+01 -1.4383256414995344e+02 0 0 0
4873 195 4 0.0000000000000000e+00 -6.9018800123805633e+01 -3.8356720074162475e+01 -1.3814327623380584e+02 0 0 0
4872 195 4 0.0000000000000000e+00 -5.8676108957556565e+01 -3.7810597398829692e+01 -1.3743010422344352e+02 0 0 0
2977 120 4 0.0000000000000000e+00 -1.8850356843518664e+01 -4.5025885268612896e+01 -1.3331860505417751e+02 0 0 0
2976 120 3 0.0000000000000000e+00 -1.1375752271492836e+01 -4.3611257577361769e+01 -1.3919235818814747e+02 0 0 0
1443 58 2 0.0000000000000000e+00 -7.2659781300168959e+01 -1.2237465350218660e+02 -1.2918587227226524e+02 0 0 0
1444 58 1 0.0000000000000000e+00 -7.7244063424059391e+01 -1.1404284463041064e+02 -1.2989700723784048e+02 0 0 0
3651 147 3 0.0000000000000000e+00 -6.6777365800681892e+01 -1.0881124805155801e+02 -1.3081329478220232e+02 0 0 0
411 17 2 0.0000000000000000e+00 -3.5220328222302847e+01 -1.0084477062308949e+02 -1.2701448318510819e+02 0 0 0
2153 87 2 0.0000000000000000e+00 9.7267407529733152e+00 -1.0445883445851489e+02 -1.2673723717659978e+02 0 0 0
3654 147 4 0.0000000000000000e+00 -4.5596544165464913e+01 -9.7225638991641574e+01 -1.3004367109017917e+02 0 0 0
412 17 2 0.0000000000000000e+00 -3.8308637071510951e+01 -9.1775255343737044e+01 -1.2462609027806424e+02 0 0 0
4272 171 4 0.0000000000000000e+00 -1.9693777407600550e+01 -9.2892027893069610e+01 -1.1921645982982012e+02 0 0 0
4268 171 4 0.0000000000000000e+00 1.1571511798509999e+01 -9.3916694812120440e+01 -1.2517033163287228e+02 0 0 0
4269 171 3 0.0000000000000000e+00 5.4983298123351494e+00 -9.2495715965284319e+01 -1.1807555173843011e+02 0 0 0
128 6 2 0.0000000000000000e+00 -1.3318665527475352e+02 -8.0782780986347035e+01 -1.1775140764856414e+02 0 0 0
4864 195 4 0.0000000000000000e+00 -4.8437724165416881e+01 -8.3867578652841061e+01 -1.2874766145139134e+02 0 0 0
4863 195 3 0.0000000000000000e+00 -4.6413705653421985e+01 -7.8962938330880817e+01 -1.2004042053072530e+02 0 0 0
414 17 2 0.0000000000000000e+00 -4.3122909839051964e+01 -7.5418009290942180e+01 -1.3007474036132598e+02 0 0 0
413 17 1 0.0000000000000000e+00 -3.7149984990755748e+01 -8.2149720249034630e+01 -1.2643746888406011e+02 0 0 0
4274 171 4 0.0000000000000000e+00 -2.8217814073068681e+01 -7.5548647113785790e+01 -1.2083265535487507e+02 0 0 0
4273 171 4 0.0000000000000000e+00 -2.3452202311862667e+01 -8.4070219739990293e+01 -1.2296910398513491e+02 0 0 0
1466 59 2 0.0000000000000000e+00 -4.2656974171618796e+00 -8.4297689268001093e+01 -1.2654983605967753e+02 0 0 0
1465 59 2 0.0000000000000000e+00 -1.2536427781257316e+01 -8.6432391041193782e+01 -1.2208458544157003e+02 0 0 0
1467 59 2 0.0000000000000000e+00 1.9713741462675998e+00 -7.6759256864387950e+01 -1.2884857525124698e+02 0 0 0
2159 87 2 0.0000000000000000e+00 2.3751144725718675e+01 -7.7800819273236598e+01 -1.2709235440450279e+02 0 0 0
1876 76 1 0.0000000000000000e+00 1.2877540335414571e+01 -8.3203009029001436e+01 -1.1764405534069618e+02 0 0 0
4744 190 3 0.0000000000000000e+00 -8.9456031790129245e+01 -6.5701880035853634e+01 -1.2687131990118525e+02 0 0 0
4745 190 4 0.0000000000000000e+00 -8.1528077638516251e+01 -5.9765573855061412e+01 -1.2418010114672985e+02 0 0 0
418 17 2 0.0000000000000000e+00 -7.8326222250948376e+01 -7.1533773938917278e+01 -1.2920969655956469e+02 0 0 0
417 17 2 0.0000000000000000e+00 -6.9677395347605582e+01 -6.6776015888767361e+01 -1.2581983411642996e+02 0 0 0
416 17 2 0.0000000000000000e+00 -5.9950551517539843e+01 -6.5450115250193221e+01 -1.2827375643741578e+02 0 0 0
415 17 2 0.0000000000000000e+00 -5.1299021477371113e+01 -7.0156361167472895e+01 -1.2924573133119029e+02 0 0 0
3662 147 4 0.0000000000000000e+00 -1.2366934283407616e+01 -5.9538548826457429e+01 -1.2650538090406891e+02 0 0 0
1468 59 2 0.0000000000000000e+00 5.7248164901718235e-01 -6.6819830085522497e+01 -1.2764965715321205e+02 0 0 0
2802 113 4 0.0000000000000000e+00 -6.3555907023657895e+01 -4.8258010585455807e+01 -1.1991566832814294e+02 0 0 0
2803 113 4 0.0000000000000000e+00 -5.5662307945566042e+01 -5.4344022938636471e+01 -1.1955708386115447e+02 0 0 0
3663 147 3 0.0000000000000000e+00 -8.3739148480239098e+00 -5.3172846171241197e+01 -1.2030233866871630e+02 0 0 0
1469 59 1 0.0000000000000000e+00 9.0681007577169362e-02 -5.8256364102798365e+01 -1.2265454647315897e+02 0 0 0
4262 171 4 0.0000000000000000e+00 1.0362837807147347e+01 -4.6457881384686530e+01 -1.2648929577702637e+02 0 0 0
1882 76 1 0.0000000000000000e+00 1.8601852845422041e+01 -5.1364818119270296e+01 -1.2721304748203322e+02 0 0 0
1881 76 2 0.0000000000000000e+00 1.9303105207709674e+01 -4.7815366946492418e+01 -1.1739489646489621e+02 0 0 0
673 27 2 0.0000000000000000e+00 -5.1722760488653790e+01 -4.4284116710921417e+01 -1.2674151714644267e+02 0 0 0
672 27 2 0.0000000000000000e+00 -5.3610918235948738e+01 -4.0199306042547668e+01 -1.1791036258688860e+02 0 0 0
3104 125 4 0.0000000000000000e+00 -4.1167028278330591e+01 -3.5538450840351246e+01 -1.2054119718831438e+02 0 0 0
2978 120 4 0.0000000000000000e+00 -2.0045753923333208e+01 -3.7413234542484567e+01 -1.2671361184844018e+02 0 0 0
2979 120 4 0.0000000000000000e+00 -2.7498982003369573e+01 -3.3056325006485039e+01 -1.2137906518895066e+02 0 0 0
3664 147 4 0.0000000000000000e+00 -2.5718986596167941e+00 -4.4617097155646000e+01 -1.1928254662172824e+02 0 0 0
4261 171 4 0.0000000000000000e+00 7.1772957656144269e+00 -3.8037371601461132e+01 -1.2160532224833217e+02 0 0 0
1451 59 1 0.0000000000000000e+00 -6.6045952389579483e+01 -1.4490679956409019e+02 -1.1198060586783640e+02 0 0 0
4851 195 3 0.0000000000000000e+00 1.4197506966126039e+00 -1.4512691618201575e+02 -1.0417120472625902e+02 0 0 0
1452 59 2 0.0000000000000000e+00 -7.2281530558029829e+01 -1.3745061288355046e+02 -1.0795694748553917e+02 0 0 0
4400 176 3 0.0000000000000000e+00 -5.7925020649611866e+01 -1.3875799622967858e+02 -1.0821802400761075e+02 0 0 0
4399 176 4 0.0000000000000000e+00 -6.3604599610425552e+01 -1.3092431529198777e+02 -1.0991793006426586e+02 0 0 0
4398 176 4 0.0000000000000000e+00 -6.4260349366922867e+01 -1.2161660726227646e+02 -1.1176360783157514e+02 0 0 0
4858 195 4 0.0000000000000000e+00 -4.6320029159037311e+01 -1.1547786361607149e+02 -1.0576643941090452e+02 0 0 0
4855 195 4 0.0000000000000000e+00 -2.4527743776123106e+01 -1.1847571604672686e+02 -1.0592525689902588e+02 0 0 0
4854 195 4 0.0000000000000000e+00 -1.5106384287540545e+01 -1.2266128576507667e+02 -1.0648009776126403e+02 0 0 0
4396 176 4 0.0000000000000000e+00 -6.8127639450625878e+01 -1.0231589600919290e+02 -1.1214991044123030e+02 0 0 0
4397 176 4 0.0000000000000000e+00 -6.7298982555021254e+01 -1.1243738554431258e+02 -1.1034197281205341e+02 0 0 0
4859 195 4 0.0000000000000000e+00 -4.7807571587110203e+01 -1.0794962501820480e+02 -1.1178511383483009e+02 0 0 0
2152 87 2 0.0000000000000000e+00 8.3570915143697526e+00 -1.0416213582780821e+02 -1.1702269953088683e+02 0 0 0
2151 87 1 0.0000000000000000e+00 5.0139359759006057e+00 -1.1324852420635065e+02 -1.1362305120109802e+02 0 0 0
127 6 2 0.0000000000000000e+00 -1.2890877664762857e+02 -8.9715389061950347e+01 -1.1424810167268949e+02 0 0 0
126 6 1 0.0000000000000000e+00 -1.2198326321641440e+02 -9.7697807555173540e+01 -1.1165054314143006e+02 0 0 0
4395 176 4 0.0000000000000000e+00 -6.6416858088394989e+01 -9.2289332786897845e+01 -1.1145385520231784e+02 0 0 0
4860 195 4 0.0000000000000000e+00 -5.0375879179198336e+01 -9.8998970047500620e+01 -1.0809119826380929e+02 0 0 0
4861 195 4 0.0000000000000000e+00 -4.8580100878021945e+01 -8.9647958306661266e+01 -1.0751883578961061e+02 0 0 0
1462 59 2 0.0000000000000000e+00 -3.5953981629879877e+01 -8.8746227343856816e+01 -1.0763076493062611e+02 0 0 0
4271 171 4 0.0000000000000000e+00 -1.3066717449652325e+01 -9.6465722907002259e+01 -1.1225012201023210e+02 0 0 0
4270 171 4 0.0000000000000000e+00 -3.0878382242040452e+00 -9.4109004467845352e+01 -1.1310555969044169e+02 0 0 0
2165 87 2 0.0000000000000000e+00 8.4340033028630650e+00 -9.6929989657826084e+01 -1.0624896807758012e+02 0 0 0
2164 87 2 0.0000000000000000e+00 1.0337367455628437e+01 -8.7352408226606343e+01 -1.0860996175603340e+02 0 0 0
508 21 2 0.0000000000000000e+00 -7.7731672141073886e+01 -8.2645756725869575e+01 -1.0575420548268086e+02 0 0 0
507 21 1 0.0000000000000000e+00 -7.4259673644121591e+01 -7.4528459862097520e+01 -1.1158516954709756e+02 0 0 0
4394 176 3 0.0000000000000000e+00 -6.8208006931997261e+01 -8.3224797792562313e+01 -1.0674368536166503e+02 0 0 0
505 21 2 0.0000000000000000e+00 -6.1612964567465674e+01 -7.3153480376419239e+01 -1.0984036259797915e+02 0 0 0
4862 195 4 0.0000000000000000e+00 -4.2034115538912687e+01 -8.2474413400071469e+01 -1.1164227185522805e+02 0 0 0
4275 171 3 0.0000000000000000e+00 -3.4599197160351103e+01 -7.4743657838271531e+01 -1.1280035337898413e+02 0 0 0
1463 59 1 0.0000000000000000e+00 -2.8464087162900096e+01 -8.3788033822798738e+01 -1.1242499143520556e+02 0 0 0
1464 59 2 0.0000000000000000e+00 -1.8617030987639790e+01 -8.4460168133578634e+01 -1.1429106657954449e+02 0 0 0
933 38 2 0.0000000000000000e+00 -2.6670038617990656e+01 -7.5302263005763493e+01 -1.0426934256431825e+02 0 0 0
1877 76 2 0.0000000000000000e+00 1.4730735750601234e+01 -7.4082561770578891e+01 -1.1441188790406623e+02 0 0 0
2163 87 1 0.0000000000000000e+00 1.9040732654869387e+01 -8.2199042787583437e+01 -1.0934958297611290e+02 0 0 0
129 6 2 0.0000000000000000e+00 -1.3602715224698579e+02 -7.1136192941214475e+01 -1.1562849823135988e+02 0 0 0
130 6 2 0.0000000000000000e+00 -1.3512796913478738e+02 -6.1421585697825989e+01 -1.1462493923249926e+02 0 0 0
578 24 2 0.0000000000000000e+00 -9.7135283357692074e+01 -5.9332502948065112e+01 -1.0956678023148241e+02 0 0 0
4747 190 4 0.0000000000000000e+00 -7.3074068736325444e+01 -6.2624757767889072e+01 -1.0776342723528246e+02 0 0 0
506 21 2 0.0000000000000000e+00 -6.8242355667762567e+01 -6.8578511963508490e+01 -1.1603994136100940e+02 0 0 0
2805 113 4 0.0000000000000000e+00 -4.3973299629957069e+01 -6.1597340465914158e+01 -1.0463164083494169e+02 0 0 0
2804 113 4 0.0000000000000000e+00 -4.9936235906365908e+01 -5.9182359967218090e+01 -1.1228597734473944e+02 0 0 0
932 38 1 0.0000000000000000e+00 -2.5486959316946574e+01 -6.6235395208040288e+01 -1.0851906437932523e+02 0 0 0
1878 76 2 0.0000000000000000e+00 1.9477694087058971e+01 -6.5541295679923252e+01 -1.1463013652089074e+02 0 0 0
3075 123 3 0.0000000000000000e+00 -1.5825185524761656e+02 -5.5044571125044548e+01 -1.0482194171728753e+02 0 0 0
131 6 2 0.0000000000000000e+00 -1.3847539091728163e+02 -5.5353234141058962e+01 -1.0724940710955040e+02 0 0 0
580 24 2 0.0000000000000000e+00 -1.1266138430349135e+02 -4.8440680128731898e+01 -1.1084609202161745e+02 0 0 0
579 24 2 0.0000000000000000e+00 -1.0637031470665173e+02 -5.6308926651798451e+01 -1.1074833123311441e+02 0 0 0
577 24 2 0.0000000000000000e+00 -8.8402938976446990e+01 -5.7811645146549104e+01 -1.0476278804045390e+02 0 0 0
576 24 1 0.0000000000000000e+00 -8.3450302627609204e+01 -5.1070547470720115e+01 -1.0942829844584330e+02 0 0 0
4746 190 4 0.0000000000000000e+00 -7.5218683015525599e+01 -5.8100809977849906e+01 -1.1661366926580394e+02 0 0 0
2801 113 3 0.0000000000000000e+00 -6.6247725556418885e+01 -4.7853955100311929e+01 -1.1024042479212294e+02 0 0 0
3875 155 3 0.0000000000000000e+00 -3.2890322015232805e+01 -5.7094467637831052e+01 -1.0861778092916272e+02 0 0 0
931 38 2 0.0000000000000000e+00 -1.9612445680062503e+01 -5.7854145432454530e+01 -1.0745881146234201e+02 0 0 0
1470 59 2 0.0000000000000000e+00 3.6109564546356956e+00 -5.7568036698508216e+01 -1.1307664376616516e+02 0 0 0
1879 76 2 0.0000000000000000e+00 2.0880435655141422e+01 -5.7253775533558354e+01 -1.0915183809828095e+02 0 0 0
1880 76 2 0.0000000000000000e+00 1.5338290233807060e+01 -4.8810503855636512e+01 -1.0893632616499539e+02 0 0 0
4051 163 3 0.0000000000000000e+00 -1.4452224338119422e+02 -3.8624870791526170e+01 -1.0659067077439386e+02 0 0 0
581 24 2 0.0000000000000000e+00 -1.1572654279950973e+02 -3.8692734883305086e+01 -1.0950590688776863e+02 0 0 0
3707 149 3 0.0000000000000000e+00 -8.1287369814967448e+01 -4.1016770398858853e+01 -1.0444269446795418e+02 0 0 0
671 27 2 0.0000000000000000e+00 -6.1372406854963280e+01 -3.5659152207010152e+01 -1.1328013614265684e+02 0 0 0
3105 125 4 0.0000000000000000e+00 -3.4163775183331140e+01 -4.1725265273442773e+01 -1.1682389494578730e+02 0 0 0