
read_data twoCluster_Es_3kT_Ens_05kT.DATA extra/special/per/atom 10
  orthogonal box = (-304 -286 -252) to (298 316 450)
  2 by 2 by 4 MPI processor grid
  reading atoms ...
  10000 atoms
  scanning bonds ...
  12 = max bonds/atom
  scanning angles ...
  1 = max angles/atom
  reading bonds ...
  10502 bonds
  reading angles ...
  9200 angles
  3 = max # of 1-2 neighbors
  4 = max # of 1-3 neighbors
  8 = max # of 1-4 neighbors
  21 = max # of special neighbors
  special bonds CPU = 0.0624413 secs
  read_data CPU = 0.179008 secs

neighbor 1.9 bin
neigh_modify every 1 delay 1 check yes

angle_style  cosine
angle_coeff   *  2  # K (energy unit)

bond_style      harmonic
# bond-type, K (energy/distance^2), R0 (distance)
bond_coeff   1   3   10
bond_coeff   2   3   10
bond_coeff   3   1.8   11.22

pair_style lj/cut 25
# atom-typ1, atom-typ2, energy-well, sigma (bead-diameter), cut-off (distance)
pair_coeff  * * 0.3 10 25

special_bonds lj  1 1 1 angle no
  3 = max # of 1-2 neighbors
  4 = max # of 1-3 neighbors
  8 = max # of 1-4 neighbors
  21 = max # of special neighbors
  special bonds CPU = 0.000629833 secs
minimize 1.0e-4 1.0e-6 100000 100000 # force_tol, energy_tol, maxiter, maxeval
WARNING: Using 'neigh_modify every 1 delay 0 check yes' setting during minimization (../min.cpp:168)
Neighbor list info ...
  update every 1 steps, delay 0 steps, check yes
  max neighbors/atom: 2000, page size: 100000
  master list distance cutoff = 26.9
  ghost atom cutoff = 26.9
  binsize = 13.45, bins = 45 45 53
  1 neighbor lists, perpetual/occasional/extra = 1 0 0
  (1) pair lj/cut, perpetual
      attributes: half, newton on
      pair build: half/bin/newton
      stencil: half/bin/3d/newton
      bin: standard
Per MPI rank memory allocation (min/avg/max) = 9.917 | 10.1 | 10.56 Mbytes
Step Temp E_pair E_mol TotEng Press 
       0            0   -7616.8962    8835.2726    1218.3764   -1.2884819 
     642            0   -12408.493    3598.8133   -8809.6794  -0.74698059 
Loop time of 0.595787 on 16 procs for 642 steps with 10000 atoms

99.6% CPU use with 16 MPI tasks x no OpenMP threads

Minimization stats:
  Stopping criterion = energy tolerance
  Energy initial, next-to-last, final = 
         1218.37640346     -8808.82640153     -8809.67938131
  Force two-norm initial, final = 307.581 3.61234
  Force max component initial, final = 10.2442 0.472665
  Final line search alpha, max atom move = 0.428559 0.202565
  Iterations, force evaluations = 642 880

MPI task timing breakdown:
Section |  min time  |  avg time  |  max time  |%varavg| %total
---------------------------------------------------------------
Pair    | 0.071435   | 0.21703    | 0.41163    |  19.8 | 36.43
Bond    | 0.010017   | 0.021451   | 0.037804   |   5.7 |  3.60
Neigh   | 0.080066   | 0.081088   | 0.081753   |   0.2 | 13.61
Comm    | 0.026453   | 0.22217    | 0.39782    |  20.0 | 37.29
Output  | 0          | 0          | 0          |   0.0 |  0.00
Modify  | 0          | 0          | 0          |   0.0 |  0.00
Other   |            | 0.05405    |            |       |  9.07

Nlocal:    625 ave 1123 max 264 min
Histogram: 4 1 1 0 4 1 3 0 0 2
Nghost:    770 ave 939 max 608 min
Histogram: 2 2 3 0 0 1 2 3 1 2
Neighs:    14577.4 ave 27651 max 4635 min
Histogram: 3 1 2 1 2 3 2 0 1 1

Total # of neighbors = 233238
Ave neighs/atom = 23.3238
Ave special neighs/atom = 7.3188
Neighbor list builds = 54
Dangerous builds = 0

fix fxlan all langevin $T $T 500 ${seed}
fix fxlan all langevin 310 $T 500 ${seed}
fix fxlan all langevin 310 310 500 ${seed}
fix fxlan all langevin 310 310 500 175137
fix fxnve all nve
timestep 0.1
run 1000
Per MPI rank memory allocation (min/avg/max) = 8.793 | 8.979 | 9.44 Mbytes
Step Temp E_pair E_mol TotEng Press 
     642            0   -12408.493    3598.8133   -8809.6794  -0.74698059 
    1642    101.94722   -12404.635    3617.4612   -5748.6244  -0.20830863 
Loop time of 0.406031 on 16 procs for 1000 steps with 10000 atoms

Performance: 21.279 ns/day, 1.128 hours/ns, 2462.865 timesteps/s
99.7% CPU use with 16 MPI tasks x no OpenMP threads

MPI task timing breakdown:
Section |  min time  |  avg time  |  max time  |%varavg| %total
---------------------------------------------------------------
Pair    | 0.044756   | 0.14972    | 0.28564    |  17.2 | 36.87
Bond    | 0.0084687  | 0.019765   | 0.034904   |   5.7 |  4.87
Neigh   | 0          | 0          | 0          |   0.0 |  0.00
Comm    | 0.027639   | 0.16901    | 0.29536    |  16.9 | 41.63
Output  | 3.2881e-05 | 6.9839e-05 | 0.00013596 |   0.0 |  0.02
Modify  | 0.012332   | 0.028956   | 0.05145    |   6.9 |  7.13
Other   |            | 0.0385     |            |       |  9.48

Nlocal:    625 ave 1123 max 264 min
Histogram: 4 1 1 0 4 1 3 0 0 2
Nghost:    770.875 ave 942 max 608 min
Histogram: 2 2 3 0 1 0 2 3 1 2
Neighs:    14600.4 ave 27694 max 4622 min
Histogram: 3 1 2 1 2 3 2 0 1 1

Total # of neighbors = 233606
Ave neighs/atom = 23.3606
Ave special neighs/atom = 7.3188
Neighbor list builds = 0
Dangerous builds = 0

unfix fxlan
unfix fxnve
reset_timestep 0

variable t equal step
variable steps equal 600000000
variable dt_restart equal 20000000
variable dt_thermo equal 1000000
variable dt_movie equal 1000000

group rxnSites type 1 3
2000 atoms in group rxnSites

fix fxcv all colvars TCC_N400_ID_300A.colvars output ${fName}
fix fxcv all colvars TCC_N400_ID_300A.colvars output Run2_Fusion_Es_3kT_Ens_05kT

# fix ID group-ID(atom-types) bond/create Nevery itype jtype Rmin bondtype (prob values = fraction seed) (iparam maxbond newType)
fix bondc rxnSites bond/create/random 20 1 3 12.72 3 prob 1 ${seed} iparam 1 1 jparam 1 3
fix bondc rxnSites bond/create/random 20 1 3 12.72 3 prob 1 175137 iparam 1 1 jparam 1 3

# fix ID group-ID bond/break Nevery bondtype Rmax keyword values ...
fix bondbr rxnSites bond/break 20 3 12.72 prob 1 ${seed}
fix bondbr rxnSites bond/break 20 3 12.72 prob 1 175137

variable frmbnd equal f_bondc[2]
variable brkbnd equal f_bondbr[2]
fix saveBond all print ${dt_thermo} "$t ${frmbnd} ${brkbnd}" file BondData_${fName}.dat screen no
fix saveBond all print 1000000 "$t ${frmbnd} ${brkbnd}" file BondData_${fName}.dat screen no
fix saveBond all print 1000000 "$t ${frmbnd} ${brkbnd}" file BondData_Run2_Fusion_Es_3kT_Ens_05kT.dat screen no

thermo_style    custom step epair pe ke ebond eangle temp bonds
thermo          ${dt_thermo}
thermo          1000000
fix saveThermo all print ${dt_thermo} "$t $(temp) $(ke) $(pe) $(epair) $(ebond) $(eangle) $(bonds)" file Thermo_${fName}.dat title "# Steps Temp KinEng PotEng Epair Ebond Eangle Bonds" screen no
fix saveThermo all print 1000000 "$t $(temp) $(ke) $(pe) $(epair) $(ebond) $(eangle) $(bonds)" file Thermo_${fName}.dat title "# Steps Temp KinEng PotEng Epair Ebond Eangle Bonds" screen no
fix saveThermo all print 1000000 "$t $(temp) $(ke) $(pe) $(epair) $(ebond) $(eangle) $(bonds)" file Thermo_Run2_Fusion_Es_3kT_Ens_05kT.dat title "# Steps Temp KinEng PotEng Epair Ebond Eangle Bonds" screen no

############################ Langevin Dynamics ###############################
fix fxlan all langevin $T $T 500 ${seed}
fix fxlan all langevin 310 $T 500 ${seed}
fix fxlan all langevin 310 310 500 ${seed}
fix fxlan all langevin 310 310 500 175137
fix fxnve all nve

comm_style tiled
fix fxbal all balance 1000 1.1 rcb # load balance for spatially heterogeneous system

timestep 25

dump coor all custom ${dt_movie} traj_${fName}.dump id type mol mass x y z xu yu zu
dump coor all custom 1000000 traj_${fName}.dump id type mol mass x y z xu yu zu
dump coor all custom 1000000 traj_Run2_Fusion_Es_3kT_Ens_05kT.dump id type mol mass x y z xu yu zu

#restart ${dt_restart} ${fName}_tp_*.restart
run ${steps}
run 600000000
Neighbor list info ...
  update every 1 steps, delay 1 steps, check yes
  max neighbors/atom: 2000, page size: 100000
  master list distance cutoff = 26.9
  ghost atom cutoff = 26.9
  binsize = 13.45, bins = 45 45 53
  2 neighbor lists, perpetual/occasional/extra = 1 1 0
  (1) pair lj/cut, perpetual
      attributes: half, newton on
      pair build: half/bin/newton
      stencil: half/bin/3d/newton
      bin: standard
  (2) fix bond/create/random, occasional, copy from (1)
      attributes: half, newton on
      pair build: copy
      stencil: none
      bin: none
colvars: Creating proxy instance
colvars: ----------------------------------------------------------------------
colvars: Initializing the collective variables module, version "2019-04-26".
colvars: Please cite Fiorin et al, Mol Phys 2013:
colvars:  http://dx.doi.org/10.1080/00268976.2013.813594
colvars: in any publication based on this calculation.
colvars: Using LAMMPS interface, version "2019-04-09".
colvars: ----------------------------------------------------------------------
colvars: Reading new configuration from file "TCC_N400_ID_300A.colvars":
colvars: # smp = on [default]
colvars: # colvarsTrajFrequency = 50000
colvars: # colvarsRestartFrequency = 50000
colvars: # scriptedColvarForces = off [default]
colvars: # scriptingAfterBiases = off [default]
colvars: ----------------------------------------------------------------------
colvars:   Initializing a new collective variable.
colvars:   # name = "dist"
colvars:   Initializing a new "distance" component.
colvars:     # name = "" [default]
colvars:     # componentCoeff = 1 [default]
colvars:     # componentExp = 1 [default]
colvars:     # period = 0 [default]
colvars:     # wrapAround = 0 [default]
colvars:     # forceNoPBC = off [default]
colvars:     # scalable = on [default]
colvars:       Initializing atom group "group1".
colvars:       # name = "" [default]
colvars:       # centerReference = off [default]
colvars:       # rotateReference = off [default]
colvars:       # atomsOfGroup = "" [default]
colvars:       # indexGroup = "" [default]
colvars:       # psfSegID =  [default]
colvars:       # atomsFile = "" [default]
colvars:       # dummyAtom = ( 0 , 0 , 0 ) [default]
colvars:       # enableForces = on [default]
colvars:       # enableFitGradients = on [default]
colvars:       # printAtomIDs = off [default]
colvars:       Atom group "group1" defined with 200 atoms requested.
colvars:       Initializing atom group "group2".
colvars:       # name = "" [default]
colvars:       # centerReference = off [default]
colvars:       # rotateReference = off [default]
colvars:       # atomsOfGroup = "" [default]
colvars:       # indexGroup = "" [default]
colvars:       # psfSegID =  [default]
colvars:       # atomsFile = "" [default]
colvars:       # dummyAtom = ( 0 , 0 , 0 ) [default]
colvars:       # enableForces = on [default]
colvars:       # enableFitGradients = on [default]
colvars:       # printAtomIDs = off [default]
colvars:       Atom group "group2" defined with 200 atoms requested.
colvars:     # oneSiteSystemForce = off [default]
colvars:     # oneSiteTotalForce = off [default]
colvars:   All components initialized.
colvars:   # timeStepFactor = 1 [default]
colvars:   # width = 1 [default]
colvars:   # lowerBoundary = 0
colvars:   # upperBoundary = 310
colvars:   # hardLowerBoundary = off [default]
colvars:   # hardUpperBoundary = off [default]
colvars:   # expandBoundaries = off [default]
colvars:   # extendedLagrangian = off [default]
colvars:   # outputValue = on [default]
colvars:   # outputVelocity = off [default]
colvars:   # outputTotalForce = off [default]
colvars:   # outputAppliedForce = off [default]
colvars:   # subtractAppliedForce = off [default]
colvars:   # runAve = off [default]
colvars:   # corrFunc = off [default]
colvars: ----------------------------------------------------------------------
colvars: Collective variables initialized, 1 in total.
colvars: ----------------------------------------------------------------------
colvars:   Initializing a new "harmonicwalls" instance.
colvars:   # name = "wall_dist"
colvars:   # colvars = { dist }
colvars:   # outputEnergy = off [default]
colvars:   # timeStepFactor = 1 [default]
colvars:   # writeTISamples = off [default]
colvars:   # writeTIPMF = off [default]
colvars:   # forceConstant = 1 [default]
colvars:   # targetForceConstant = -1 [default]
colvars:   # lowerWalls = { 0 } [default]
colvars:   Lower walls were not provided.
colvars:   # upperWalls = { 305 }
colvars:   # upperWallConstant = 20
colvars:   The upper wall force constant for colvar "dist" will be rescaled to 20 according to the specified width (1).
colvars: ----------------------------------------------------------------------
colvars:   Initializing a new "metadynamics" instance.
colvars:   # name = "Mtd_dist"
colvars:   # colvars = { dist }
colvars:   # outputEnergy = off [default]
colvars:   # timeStepFactor = 1 [default]
colvars:   # writeTISamples = off [default]
colvars:   # writeTIPMF = off [default]
colvars:   # hillWeight = 0.2
colvars:   # newHillFrequency = 500
colvars:   # hillWidth = 1
colvars:   Half-widths of the Gaussian hills (sigma's):
colvars:   dist: 0.5
colvars:   # multipleReplicas = off [default]
colvars:   # useGrids = on [default]
colvars:   # gridsUpdateFrequency = 500 [default]
colvars:   # rebinGrids = off [default]
colvars:   # keepHills = off [default]
colvars:   # writeFreeEnergyFile = on [default]
colvars:   # keepFreeEnergyFiles = off [default]
colvars:   # writeHillsTrajectory = on
colvars:   # wellTempered = on
colvars:   # biasTemperature = 310
colvars:   Well-tempered metadynamics is used.
colvars:   The bias temperature is 310.
colvars:   # ebMeta = off [default]
colvars: ----------------------------------------------------------------------
colvars: Collective variables biases initialized, 2 in total.
colvars: ----------------------------------------------------------------------
colvars: Collective variables module (re)initialized.
colvars: ----------------------------------------------------------------------
colvars: The restart output state file will be "rest.colvars.state".
colvars: The final output state file will be "Run2_Fusion_Es_3kT_Ens_05kT.colvars.state".
colvars: Writing to colvar trajectory file "Run2_Fusion_Es_3kT_Ens_05kT.colvars.traj".
colvars: Re-initialized atom group for variable "dist":0/0. 200 atoms: total mass = 200000, total charge = 0.
colvars: Re-initialized atom group for variable "dist":0/1. 200 atoms: total mass = 200000, total charge = 0.
Per MPI rank memory allocation (min/avg/max) = 10.95 | 11.34 | 11.91 Mbytes
Step E_pair PotEng KinEng E_bond E_angle Temp Bonds 
       0   -12404.635   -8787.1734     3038.549    240.11261    3377.3486    101.94722    10502 
colvars: Synchronizing (emptying the buffer of) trajectory file "Run2_Fusion_Es_3kT_Ens_05kT.colvars.traj".
colvars: Saving collective variables state to "rest.colvars.state".
colvars: Synchronizing (emptying the buffer of) trajectory file "Run2_Fusion_Es_3kT_Ens_05kT.colvars.traj".
colvars: Saving collective variables state to "rest.colvars.state".
colvars: Synchronizing (emptying the buffer of) trajectory file "Run2_Fusion_Es_3kT_Ens_05kT.colvars.traj".
colvars: Saving collective variables state to "rest.colvars.state".
colvars: Synchronizing (emptying the buffer of) trajectory file "Run2_Fusion_Es_3kT_Ens_05kT.colvars.traj".
colvars: Saving collective variables state to "rest.colvars.state".
colvars: Synchronizing (emptying the buffer of) trajectory file "Run2_Fusion_Es_3kT_Ens_05kT.colvars.traj".
colvars: Saving collective variables state to "rest.colvars.state".
colvars: Synchronizing (emptying the buffer of) trajectory file "Run2_Fusion_Es_3kT_Ens_05kT.colvars.traj".
colvars: Saving collective variables state to "rest.colvars.state".
colvars: Synchronizing (emptying the buffer of) trajectory file "Run2_Fusion_Es_3kT_Ens_05kT.colvars.traj".
colvars: Saving collective variables state to "rest.colvars.state".
colvars: Synchronizing (emptying the buffer of) trajectory file "Run2_Fusion_Es_3kT_Ens_05kT.colvars.traj".
colvars: Saving collective variables state to "rest.colvars.state".
colvars: Synchronizing (emptying the buffer of) trajectory file "Run2_Fusion_Es_3kT_Ens_05kT.colvars.traj".
colvars: Saving collective variables state to "rest.colvars.state".
colvars: Synchronizing (emptying the buffer of) trajectory file "Run2_Fusion_Es_3kT_Ens_05kT.colvars.traj".
colvars: Saving collective variables state to "rest.colvars.state".
colvars: Synchronizing (emptying the buffer of) trajectory file "Run2_Fusion_Es_3kT_Ens_05kT.colvars.traj".
colvars: Saving collective variables state to "rest.colvars.state".
colvars: Synchronizing (emptying the buffer of) trajectory file "Run2_Fusion_Es_3kT_Ens_05kT.colvars.traj".
colvars: Saving collective variables state to "rest.colvars.state".
colvars: Synchronizing (emptying the buffer of) trajectory file "Run2_Fusion_Es_3kT_Ens_05kT.colvars.traj".
colvars: Saving collective variables state to "rest.colvars.state".
colvars: Synchronizing (emptying the buffer of) trajectory file "Run2_Fusion_Es_3kT_Ens_05kT.colvars.traj".
colvars: Saving collective variables state to "rest.colvars.state".
colvars: Synchronizing (emptying the buffer of) trajectory file "Run2_Fusion_Es_3kT_Ens_05kT.colvars.traj".
colvars: Saving collective variables state to "rest.colvars.state".
colvars: Synchronizing (emptying the buffer of) trajectory file "Run2_Fusion_Es_3kT_Ens_05kT.colvars.traj".
colvars: Saving collective variables state to "rest.colvars.state".
colvars: Synchronizing (emptying the buffer of) trajectory file "Run2_Fusion_Es_3kT_Ens_05kT.colvars.traj".
colvars: Saving collective variables state to "rest.colvars.state".
colvars: Synchronizing (emptying the buffer of) trajectory file "Run2_Fusion_Es_3kT_Ens_05kT.colvars.traj".
colvars: Saving collective variables state to "rest.colvars.state".
colvars: Synchronizing (emptying the buffer of) trajectory file "Run2_Fusion_Es_3kT_Ens_05kT.colvars.traj".
colvars: Saving collective variables state to "rest.colvars.state".
colvars: Synchronizing (emptying the buffer of) trajectory file "Run2_Fusion_Es_3kT_Ens_05kT.colvars.traj".
colvars: Saving collective variables state to "rest.colvars.state".
 1000000   -7670.0878    1031.7742    9266.7186     3044.998    5656.8641     310.9103    10503 
colvars: Synchronizing (emptying the buffer of) trajectory file "Run2_Fusion_Es_3kT_Ens_05kT.colvars.traj".
colvars: Saving collective variables state to "rest.colvars.state".
colvars: Synchronizing (emptying the buffer of) trajectory file "Run2_Fusion_Es_3kT_Ens_05kT.colvars.traj".
colvars: Saving collective variables state to "rest.colvars.state".
colvars: Synchronizing (emptying the buffer of) trajectory file "Run2_Fusion_Es_3kT_Ens_05kT.colvars.traj".
colvars: Saving collective variables state to "rest.colvars.state".
colvars: Synchronizing (emptying the buffer of) trajectory file "Run2_Fusion_Es_3kT_Ens_05kT.colvars.traj".
colvars: Saving collective variables state to "rest.colvars.state".
colvars: Synchronizing (emptying the buffer of) trajectory file "Run2_Fusion_Es_3kT_Ens_05kT.colvars.traj".
colvars: Saving collective variables state to "rest.colvars.state".
colvars: Synchronizing (emptying the buffer of) trajectory file "Run2_Fusion_Es_3kT_Ens_05kT.colvars.traj".
colvars: Saving collective variables state to "rest.colvars.state".
colvars: Synchronizing (emptying the buffer of) trajectory file "Run2_Fusion_Es_3kT_Ens_05kT.colvars.traj".
colvars: Saving collective variables state to "rest.colvars.state".
colvars: Synchronizing (emptying the buffer of) trajectory file "Run2_Fusion_Es_3kT_Ens_05kT.colvars.traj".
colvars: Saving collective variables state to "rest.colvars.state".
colvars: Synchronizing (emptying the buffer of) trajectory file "Run2_Fusion_Es_3kT_Ens_05kT.colvars.traj".
colvars: Saving collective variables state to "rest.colvars.state".
colvars: Synchronizing (emptying the buffer of) trajectory file "Run2_Fusion_Es_3kT_Ens_05kT.colvars.traj".
colvars: Saving collective variables state to "rest.colvars.state".
colvars: Synchronizing (emptying the buffer of) trajectory file "Run2_Fusion_Es_3kT_Ens_05kT.colvars.traj".
colvars: Saving collective variables state to "rest.colvars.state".
colvars: Synchronizing (emptying the buffer of) trajectory file "Run2_Fusion_Es_3kT_Ens_05kT.colvars.traj".
colvars: Saving collective variables state to "rest.colvars.state".
colvars: Synchronizing (emptying the buffer of) trajectory file "Run2_Fusion_Es_3kT_Ens_05kT.colvars.traj".
colvars: Saving collective variables state to "rest.colvars.state".
colvars: Synchronizing (emptying the buffer of) trajectory file "Run2_Fusion_Es_3kT_Ens_05kT.colvars.traj".
colvars: Saving collective variables state to "rest.colvars.state".
colvars: Synchronizing (emptying the buffer of) trajectory file "Run2_Fusion_Es_3kT_Ens_05kT.colvars.traj".
colvars: Saving collective variables state to "rest.colvars.state".
colvars: Synchronizing (emptying the buffer of) trajectory file "Run2_Fusion_Es_3kT_Ens_05kT.colvars.traj".
colvars: Saving collective variables state to "rest.colvars.state".
colvars: Synchronizing (emptying the buffer of) trajectory file "Run2_Fusion_Es_3kT_Ens_05kT.colvars.traj".
colvars: Saving collective variables state to "rest.colvars.state".
colvars: Synchronizing (emptying the buffer of) trajectory file "Run2_Fusion_Es_3kT_Ens_05kT.colvars.traj".
colvars: Saving collective variables state to "rest.colvars.state".
colvars: Synchronizing (emptying the buffer of) trajectory file "Run2_Fusion_Es_3kT_Ens_05kT.colvars.traj".
colvars: Saving collective variables state to "rest.colvars.state".
colvars: Synchronizing (emptying the buffer of) trajectory file "Run2_Fusion_Es_3kT_Ens_05kT.colvars.traj".
colvars: Saving collective variables state to "rest.colvars.state".
 2000000    -7544.883    1357.0525    9291.2193    3149.1165     5752.819    311.73233    10503 
colvars: Synchronizing (emptying the buffer of) trajectory file "Run2_Fusion_Es_3kT_Ens_05kT.colvars.traj".
colvars: Saving collective variables state to "rest.colvars.state".
colvars: Synchronizing (emptying the buffer of) trajectory file "Run2_Fusion_Es_3kT_Ens_05kT.colvars.traj".
colvars: Saving collective variables state to "rest.colvars.state".
colvars: Synchronizing (emptying the buffer of) trajectory file "Run2_Fusion_Es_3kT_Ens_05kT.colvars.traj".
colvars: Saving collective variables state to "rest.colvars.state".
colvars: Synchronizing (emptying the buffer of) trajectory file "Run2_Fusion_Es_3kT_Ens_05kT.colvars.traj".
colvars: Saving collective variables state to "rest.colvars.state".
colvars: Synchronizing (emptying the buffer of) trajectory file "Run2_Fusion_Es_3kT_Ens_05kT.colvars.traj".
colvars: Saving collective variables state to "rest.colvars.state".
colvars: Synchronizing (emptying the buffer of) trajectory file "Run2_Fusion_Es_3kT_Ens_05kT.colvars.traj".
colvars: Saving collective variables state to "rest.colvars.state".
colvars: Synchronizing (emptying the buffer of) trajectory file "Run2_Fusion_Es_3kT_Ens_05kT.colvars.traj".
colvars: Saving collective variables state to "rest.colvars.state".
colvars: Synchronizing (emptying the buffer of) trajectory file "Run2_Fusion_Es_3kT_Ens_05kT.colvars.traj".
colvars: Saving collective variables state to "rest.colvars.state".
colvars: Synchronizing (emptying the buffer of) trajectory file "Run2_Fusion_Es_3kT_Ens_05kT.colvars.traj".
colvars: Saving collective variables state to "rest.colvars.state".
colvars: Synchronizing (emptying the buffer of) trajectory file "Run2_Fusion_Es_3kT_Ens_05kT.colvars.traj".
colvars: Saving collective variables state to "rest.colvars.state".
colvars: Synchronizing (emptying the buffer of) trajectory file "Run2_Fusion_Es_3kT_Ens_05kT.colvars.traj".
colvars: Saving collective variables state to "rest.colvars.state".
colvars: Synchronizing (emptying the buffer of) trajectory file "Run2_Fusion_Es_3kT_Ens_05kT.colvars.traj".
colvars: Saving collective variables state to "rest.colvars.state".
colvars: Synchronizing (emptying the buffer of) trajectory file "Run2_Fusion_Es_3kT_Ens_05kT.colvars.traj".
colvars: Saving collective variables state to "rest.colvars.state".
colvars: Synchronizing (emptying the buffer of) trajectory file "Run2_Fusion_Es_3kT_Ens_05kT.colvars.traj".
colvars: Saving collective variables state to "rest.colvars.state".
colvars: Synchronizing (emptying the buffer of) trajectory file "Run2_Fusion_Es_3kT_Ens_05kT.colvars.traj".
colvars: Saving collective variables state to "rest.colvars.state".
colvars: Synchronizing (emptying the buffer of) trajectory file "Run2_Fusion_Es_3kT_Ens_05kT.colvars.traj".
colvars: Saving collective variables state to "rest.colvars.state".
colvars: Synchronizing (emptying the buffer of) trajectory file "Run2_Fusion_Es_3kT_Ens_05kT.colvars.traj".
colvars: Saving collective variables state to "rest.colvars.state".
colvars: Synchronizing (emptying the buffer of) trajectory file "Run2_Fusion_Es_3kT_Ens_05kT.colvars.traj".
colvars: Saving collective variables state to "rest.colvars.state".
colvars: Synchronizing (emptying the buffer of) trajectory file "Run2_Fusion_Es_3kT_Ens_05kT.colvars.traj".
colvars: Saving collective variables state to "rest.colvars.state".
colvars: Synchronizing (emptying the buffer of) trajectory file "Run2_Fusion_Es_3kT_Ens_05kT.colvars.traj".
colvars: Saving collective variables state to "rest.colvars.state".
 3000000   -7565.7365    1232.6621    9169.5581    3093.0121    5705.3866    307.65044    10509 
colvars: Synchronizing (emptying the buffer of) trajectory file "Run2_Fusion_Es_3kT_Ens_05kT.colvars.traj".
colvars: Saving collective variables state to "rest.colvars.state".
colvars: Synchronizing (emptying the buffer of) trajectory file "Run2_Fusion_Es_3kT_Ens_05kT.colvars.traj".
colvars: Saving collective variables state to "rest.colvars.state".
colvars: Synchronizing (emptying the buffer of) trajectory file "Run2_Fusion_Es_3kT_Ens_05kT.colvars.traj".
colvars: Saving collective variables state to "rest.colvars.state".
colvars: Synchronizing (emptying the buffer of) trajectory file "Run2_Fusion_Es_3kT_Ens_05kT.colvars.traj".
colvars: Saving collective variables state to "rest.colvars.state".
colvars: Synchronizing (emptying the buffer of) trajectory file "Run2_Fusion_Es_3kT_Ens_05kT.colvars.traj".
colvars: Saving collective variables state to "rest.colvars.state".
colvars: Synchronizing (emptying the buffer of) trajectory file "Run2_Fusion_Es_3kT_Ens_05kT.colvars.traj".
colvars: Saving collective variables state to "rest.colvars.state".
colvars: Synchronizing (emptying the buffer of) trajectory file "Run2_Fusion_Es_3kT_Ens_05kT.colvars.traj".
colvars: Saving collective variables state to "rest.colvars.state".
colvars: Synchronizing (emptying the buffer of) trajectory file "Run2_Fusion_Es_3kT_Ens_05kT.colvars.traj".
colvars: Saving collective variables state to "rest.colvars.state".
colvars: Synchronizing (emptying the buffer of) trajectory file "Run2_Fusion_Es_3kT_Ens_05kT.colvars.traj".
colvars: Saving collective variables state to "rest.colvars.state".
colvars: Synchronizing (emptying the buffer of) trajectory file "Run2_Fusion_Es_3kT_Ens_05kT.colvars.traj".
colvars: Saving collective variables state to "rest.colvars.state".
colvars: Synchronizing (emptying the buffer of) trajectory file "Run2_Fusion_Es_3kT_Ens_05kT.colvars.traj".
colvars: Saving collective variables state to "rest.colvars.state".
colvars: Synchronizing (emptying the buffer of) trajectory file "Run2_Fusion_Es_3kT_Ens_05kT.colvars.traj".
colvars: Saving collective variables state to "rest.colvars.state".
colvars: Synchronizing (emptying the buffer of) trajectory file "Run2_Fusion_Es_3kT_Ens_05kT.colvars.traj".
colvars: Saving collective variables state to "rest.colvars.state".
colvars: Synchronizing (emptying the buffer of) trajectory file "Run2_Fusion_Es_3kT_Ens_05kT.colvars.traj".
colvars: Saving collective variables state to "rest.colvars.state".
colvars: Synchronizing (emptying the buffer of) trajectory file "Run2_Fusion_Es_3kT_Ens_05kT.colvars.traj".
colvars: Saving collective variables state to "rest.colvars.state".
colvars: Synchronizing (emptying the buffer of) trajectory file "Run2_Fusion_Es_3kT_Ens_05kT.colvars.traj".
colvars: Saving collective variables state to "rest.colvars.state".
colvars: Synchronizing (emptying the buffer of) trajectory file "Run2_Fusion_Es_3kT_Ens_05kT.colvars.traj".
colvars: Saving collective variables state to "rest.colvars.state".
colvars: Synchronizing (emptying the buffer of) trajectory file "Run2_Fusion_Es_3kT_Ens_05kT.colvars.traj".
colvars: Saving collective variables state to "rest.colvars.state".
colvars: Synchronizing (emptying the buffer of) trajectory file "Run2_Fusion_Es_3kT_Ens_05kT.colvars.traj".
colvars: Saving collective variables state to "rest.colvars.state".
colvars: Synchronizing (emptying the buffer of) trajectory file "Run2_Fusion_Es_3kT_Ens_05kT.colvars.traj".
colvars: Saving collective variables state to "rest.colvars.state".
 4000000   -7587.1177    1284.9653    9245.0018    3134.3331    5737.7499    310.18167    10499 
colvars: Synchronizing (emptying the buffer of) trajectory file "Run2_Fusion_Es_3kT_Ens_05kT.colvars.traj".
colvars: Saving collective variables state to "rest.colvars.state".
colvars: Synchronizing (emptying the buffer of) trajectory file "Run2_Fusion_Es_3kT_Ens_05kT.colvars.traj".
colvars: Saving collective variables state to "rest.colvars.state".
colvars: Synchronizing (emptying the buffer of) trajectory file "Run2_Fusion_Es_3kT_Ens_05kT.colvars.traj".
colvars: Saving collective variables state to "rest.colvars.state".
colvars: Synchronizing (emptying the buffer of) trajectory file "Run2_Fusion_Es_3kT_Ens_05kT.colvars.traj".
colvars: Saving collective variables state to "rest.colvars.state".
colvars: Synchronizing (emptying the buffer of) trajectory file "Run2_Fusion_Es_3kT_Ens_05kT.colvars.traj".
colvars: Saving collective variables state to "rest.colvars.state".
colvars: Synchronizing (emptying the buffer of) trajectory file "Run2_Fusion_Es_3kT_Ens_05kT.colvars.traj".
colvars: Saving collective variables state to "rest.colvars.state".
colvars: Synchronizing (emptying the buffer of) trajectory file "Run2_Fusion_Es_3kT_Ens_05kT.colvars.traj".
colvars: Saving collective variables state to "rest.colvars.state".
colvars: Synchronizing (emptying the buffer of) trajectory file "Run2_Fusion_Es_3kT_Ens_05kT.colvars.traj".
colvars: Saving collective variables state to "rest.colvars.state".
colvars: Synchronizing (emptying the buffer of) trajectory file "Run2_Fusion_Es_3kT_Ens_05kT.colvars.traj".
colvars: Saving collective variables state to "rest.colvars.state".
colvars: Synchronizing (emptying the buffer of) trajectory file "Run2_Fusion_Es_3kT_Ens_05kT.colvars.traj".
colvars: Saving collective variables state to "rest.colvars.state".
colvars: Synchronizing (emptying the buffer of) trajectory file "Run2_Fusion_Es_3kT_Ens_05kT.colvars.traj".
colvars: Saving collective variables state to "rest.colvars.state".
colvars: Synchronizing (emptying the buffer of) trajectory file "Run2_Fusion_Es_3kT_Ens_05kT.colvars.traj".
colvars: Saving collective variables state to "rest.colvars.state".
colvars: Synchronizing (emptying the buffer of) trajectory file "Run2_Fusion_Es_3kT_Ens_05kT.colvars.traj".
colvars: Saving collective variables state to "rest.colvars.state".
colvars: Synchronizing (emptying the buffer of) trajectory file "Run2_Fusion_Es_3kT_Ens_05kT.colvars.traj".
colvars: Saving collective variables state to "rest.colvars.state".
colvars: Synchronizing (emptying the buffer of) trajectory file "Run2_Fusion_Es_3kT_Ens_05kT.colvars.traj".
colvars: Saving collective variables state to "rest.colvars.state".
colvars: Synchronizing (emptying the buffer of) trajectory file "Run2_Fusion_Es_3kT_Ens_05kT.colvars.traj".
colvars: Saving collective variables state to "rest.colvars.state".
colvars: Synchronizing (emptying the buffer of) trajectory file "Run2_Fusion_Es_3kT_Ens_05kT.colvars.traj".
colvars: Saving collective variables state to "rest.colvars.state".
colvars: Synchronizing (emptying the buffer of) trajectory file "Run2_Fusion_Es_3kT_Ens_05kT.colvars.traj".
colvars: Saving collective variables state to "rest.colvars.state".
colvars: Synchronizing (emptying the buffer of) trajectory file "Run2_Fusion_Es_3kT_Ens_05kT.colvars.traj".
colvars: Saving collective variables state to "rest.colvars.state".
colvars: Synchronizing (emptying the buffer of) trajectory file "Run2_Fusion_Es_3kT_Ens_05kT.colvars.traj".
colvars: Saving collective variables state to "rest.colvars.state".
 5000000   -7637.9698    1135.8176    9240.1743    3120.8677    5652.9197     310.0197    10502 
colvars: Synchronizing (emptying the buffer of) trajectory file "Run2_Fusion_Es_3kT_Ens_05kT.colvars.traj".
colvars: Saving collective variables state to "rest.colvars.state".
colvars: Synchronizing (emptying the buffer of) trajectory file "Run2_Fusion_Es_3kT_Ens_05kT.colvars.traj".
colvars: Saving collective variables state to "rest.colvars.state".
colvars: Synchronizing (emptying the buffer of) trajectory file "Run2_Fusion_Es_3kT_Ens_05kT.colvars.traj".
colvars: Saving collective variables state to "rest.colvars.state".
colvars: Synchronizing (emptying the buffer of) trajectory file "Run2_Fusion_Es_3kT_Ens_05kT.colvars.traj".
colvars: Saving collective variables state to "rest.colvars.state".
colvars: Synchronizing (emptying the buffer of) trajectory file "Run2_Fusion_Es_3kT_Ens_05kT.colvars.traj".
colvars: Saving collective variables state to "rest.colvars.state".
colvars: Synchronizing (emptying the buffer of) trajectory file "Run2_Fusion_Es_3kT_Ens_05kT.colvars.traj".
colvars: Saving collective variables state to "rest.colvars.state".
colvars: Synchronizing (emptying the buffer of) trajectory file "Run2_Fusion_Es_3kT_Ens_05kT.colvars.traj".
colvars: Saving collective variables state to "rest.colvars.state".
colvars: Synchronizing (emptying the buffer of) trajectory file "Run2_Fusion_Es_3kT_Ens_05kT.colvars.traj".
colvars: Saving collective variables state to "rest.colvars.state".
colvars: Synchronizing (emptying the buffer of) trajectory file "Run2_Fusion_Es_3kT_Ens_05kT.colvars.traj".
colvars: Saving collective variables state to "rest.colvars.state".
colvars: Synchronizing (emptying the buffer of) trajectory file "Run2_Fusion_Es_3kT_Ens_05kT.colvars.traj".
colvars: Saving collective variables state to "rest.colvars.state".
colvars: Synchronizing (emptying the buffer of) trajectory file "Run2_Fusion_Es_3kT_Ens_05kT.colvars.traj".
colvars: Saving collective variables state to "rest.colvars.state".
colvars: Synchronizing (emptying the buffer of) trajectory file "Run2_Fusion_Es_3kT_Ens_05kT.colvars.traj".
colvars: Saving collective variables state to "rest.colvars.state".
colvars: Synchronizing (emptying the buffer of) trajectory file "Run2_Fusion_Es_3kT_Ens_05kT.colvars.traj".
colvars: Saving collective variables state to "rest.colvars.state".
colvars: Synchronizing (emptying the buffer of) trajectory file "Run2_Fusion_Es_3kT_Ens_05kT.colvars.traj".
colvars: Saving collective variables state to "rest.colvars.state".
colvars: Synchronizing (emptying the buffer of) trajectory file "Run2_Fusion_Es_3kT_Ens_05kT.colvars.traj".
colvars: Saving collective variables state to "rest.colvars.state".
colvars: Synchronizing (emptying the buffer of) trajectory file "Run2_Fusion_Es_3kT_Ens_05kT.colvars.traj".
colvars: Saving collective variables state to "rest.colvars.state".
colvars: Synchronizing (emptying the buffer of) trajectory file "Run2_Fusion_Es_3kT_Ens_05kT.colvars.traj".
colvars: Saving collective variables state to "rest.colvars.state".
colvars: Synchronizing (emptying the buffer of) trajectory file "Run2_Fusion_Es_3kT_Ens_05kT.colvars.traj".
colvars: Saving collective variables state to "rest.colvars.state".
colvars: Synchronizing (emptying the buffer of) trajectory file "Run2_Fusion_Es_3kT_Ens_05kT.colvars.traj".
colvars: Saving collective variables state to "rest.colvars.state".
colvars: Synchronizing (emptying the buffer of) trajectory file "Run2_Fusion_Es_3kT_Ens_05kT.colvars.traj".
colvars: Saving collective variables state to "rest.colvars.state".
 6000000   -7613.8653    1164.3683    9162.1401      3063.04    5715.1935    307.40155    10497 
colvars: Synchronizing (emptying the buffer of) trajectory file "Run2_Fusion_Es_3kT_Ens_05kT.colvars.traj".
colvars: Saving collective variables state to "rest.colvars.state".
colvars: Synchronizing (emptying the buffer of) trajectory file "Run2_Fusion_Es_3kT_Ens_05kT.colvars.traj".
colvars: Saving collective variables state to "rest.colvars.state".
colvars: Synchronizing (emptying the buffer of) trajectory file "Run2_Fusion_Es_3kT_Ens_05kT.colvars.traj".
colvars: Saving collective variables state to "rest.colvars.state".
colvars: Synchronizing (emptying the buffer of) trajectory file "Run2_Fusion_Es_3kT_Ens_05kT.colvars.traj".
colvars: Saving collective variables state to "rest.colvars.state".
colvars: Synchronizing (emptying the buffer of) trajectory file "Run2_Fusion_Es_3kT_Ens_05kT.colvars.traj".
colvars: Saving collective variables state to "rest.colvars.state".
colvars: Synchronizing (emptying the buffer of) trajectory file "Run2_Fusion_Es_3kT_Ens_05kT.colvars.traj".
colvars: Saving collective variables state to "rest.colvars.state".
colvars: Synchronizing (emptying the buffer of) trajectory file "Run2_Fusion_Es_3kT_Ens_05kT.colvars.traj".
colvars: Saving collective variables state to "rest.colvars.state".
colvars: Synchronizing (emptying the buffer of) trajectory file "Run2_Fusion_Es_3kT_Ens_05kT.colvars.traj".
colvars: Saving collective variables state to "rest.colvars.state".
colvars: Synchronizing (emptying the buffer of) trajectory file "Run2_Fusion_Es_3kT_Ens_05kT.colvars.traj".
colvars: Saving collective variables state to "rest.colvars.state".
colvars: Synchronizing (emptying the buffer of) trajectory file "Run2_Fusion_Es_3kT_Ens_05kT.colvars.traj".
colvars: Saving collective variables state to "rest.colvars.state".
colvars: Synchronizing (emptying the buffer of) trajectory file "Run2_Fusion_Es_3kT_Ens_05kT.colvars.traj".
colvars: Saving collective variables state to "rest.colvars.state".
colvars: Synchronizing (emptying the buffer of) trajectory file "Run2_Fusion_Es_3kT_Ens_05kT.colvars.traj".
colvars: Saving collective variables state to "rest.colvars.state".
colvars: Synchronizing (emptying the buffer of) trajectory file "Run2_Fusion_Es_3kT_Ens_05kT.colvars.traj".
colvars: Saving collective variables state to "rest.colvars.state".
colvars: Synchronizing (emptying the buffer of) trajectory file "Run2_Fusion_Es_3kT_Ens_05kT.colvars.traj".
colvars: Saving collective variables state to "rest.colvars.state".
colvars: Synchronizing (emptying the buffer of) trajectory file "Run2_Fusion_Es_3kT_Ens_05kT.colvars.traj".
colvars: Saving collective variables state to "rest.colvars.state".
colvars: Synchronizing (emptying the buffer of) trajectory file "Run2_Fusion_Es_3kT_Ens_05kT.colvars.traj".
colvars: Saving collective variables state to "rest.colvars.state".
colvars: Synchronizing (emptying the buffer of) trajectory file "Run2_Fusion_Es_3kT_Ens_05kT.colvars.traj".
colvars: Saving collective variables state to "rest.colvars.state".
colvars: Synchronizing (emptying the buffer of) trajectory file "Run2_Fusion_Es_3kT_Ens_05kT.colvars.traj".
colvars: Saving collective variables state to "rest.colvars.state".
colvars: Synchronizing (emptying the buffer of) trajectory file "Run2_Fusion_Es_3kT_Ens_05kT.colvars.traj".
colvars: Saving collective variables state to "rest.colvars.state".
colvars: Synchronizing (emptying the buffer of) trajectory file "Run2_Fusion_Es_3kT_Ens_05kT.colvars.traj".
colvars: Saving collective variables state to "rest.colvars.state".
 7000000   -7543.0497    1374.7732    9414.8818    3144.8232    5772.9997    315.88136    10496 
colvars: Synchronizing (emptying the buffer of) trajectory file "Run2_Fusion_Es_3kT_Ens_05kT.colvars.traj".
colvars: Saving collective variables state to "rest.colvars.state".
colvars: Synchronizing (emptying the buffer of) trajectory file "Run2_Fusion_Es_3kT_Ens_05kT.colvars.traj".
colvars: Saving collective variables state to "rest.colvars.state".
colvars: Synchronizing (emptying the buffer of) trajectory file "Run2_Fusion_Es_3kT_Ens_05kT.colvars.traj".
colvars: Saving collective variables state to "rest.colvars.state".
colvars: Synchronizing (emptying the buffer of) trajectory file "Run2_Fusion_Es_3kT_Ens_05kT.colvars.traj".
colvars: Saving collective variables state to "rest.colvars.state".
colvars: Synchronizing (emptying the buffer of) trajectory file "Run2_Fusion_Es_3kT_Ens_05kT.colvars.traj".
colvars: Saving collective variables state to "rest.colvars.state".
colvars: Synchronizing (emptying the buffer of) trajectory file "Run2_Fusion_Es_3kT_Ens_05kT.colvars.traj".
colvars: Saving collective variables state to "rest.colvars.state".
colvars: Synchronizing (emptying the buffer of) trajectory file "Run2_Fusion_Es_3kT_Ens_05kT.colvars.traj".
colvars: Saving collective variables state to "rest.colvars.state".
colvars: Synchronizing (emptying the buffer of) trajectory file "Run2_Fusion_Es_3kT_Ens_05kT.colvars.traj".
colvars: Saving collective variables state to "rest.colvars.state".
colvars: Synchronizing (emptying the buffer of) trajectory file "Run2_Fusion_Es_3kT_Ens_05kT.colvars.traj".
colvars: Saving collective variables state to "rest.colvars.state".
colvars: Synchronizing (emptying the buffer of) trajectory file "Run2_Fusion_Es_3kT_Ens_05kT.colvars.traj".
colvars: Saving collective variables state to "rest.colvars.state".
colvars: Synchronizing (emptying the buffer of) trajectory file "Run2_Fusion_Es_3kT_Ens_05kT.colvars.traj".
colvars: Saving collective variables state to "rest.colvars.state".
colvars: Synchronizing (emptying the buffer of) trajectory file "Run2_Fusion_Es_3kT_Ens_05kT.colvars.traj".
colvars: Saving collective variables state to "rest.colvars.state".
colvars: Synchronizing (emptying the buffer of) trajectory file "Run2_Fusion_Es_3kT_Ens_05kT.colvars.traj".
colvars: Saving collective variables state to "rest.colvars.state".
colvars: Synchronizing (emptying the buffer of) trajectory file "Run2_Fusion_Es_3kT_Ens_05kT.colvars.traj".
colvars: Saving collective variables state to "rest.colvars.state".
colvars: Synchronizing (emptying the buffer of) trajectory file "Run2_Fusion_Es_3kT_Ens_05kT.colvars.traj".
colvars: Saving collective variables state to "rest.colvars.state".
colvars: Synchronizing (emptying the buffer of) trajectory file "Run2_Fusion_Es_3kT_Ens_05kT.colvars.traj".
colvars: Saving collective variables state to "rest.colvars.state".
colvars: Synchronizing (emptying the buffer of) trajectory file "Run2_Fusion_Es_3kT_Ens_05kT.colvars.traj".
colvars: Saving collective variables state to "rest.colvars.state".
colvars: Synchronizing (emptying the buffer of) trajectory file "Run2_Fusion_Es_3kT_Ens_05kT.colvars.traj".
colvars: Saving collective variables state to "rest.colvars.state".
colvars: Synchronizing (emptying the buffer of) trajectory file "Run2_Fusion_Es_3kT_Ens_05kT.colvars.traj".
colvars: Saving collective variables state to "rest.colvars.state".
colvars: Synchronizing (emptying the buffer of) trajectory file "Run2_Fusion_Es_3kT_Ens_05kT.colvars.traj".
colvars: Saving collective variables state to "rest.colvars.state".
 8000000   -7555.4749    1221.8558    9273.5456    3098.4772    5678.8534    311.13935    10516 
colvars: Synchronizing (emptying the buffer of) trajectory file "Run2_Fusion_Es_3kT_Ens_05kT.colvars.traj".
colvars: Saving collective variables state to "rest.colvars.state".
colvars: Synchronizing (emptying the buffer of) trajectory file "Run2_Fusion_Es_3kT_Ens_05kT.colvars.traj".
colvars: Saving collective variables state to "rest.colvars.state".
colvars: Synchronizing (emptying the buffer of) trajectory file "Run2_Fusion_Es_3kT_Ens_05kT.colvars.traj".
colvars: Saving collective variables state to "rest.colvars.state".
colvars: Synchronizing (emptying the buffer of) trajectory file "Run2_Fusion_Es_3kT_Ens_05kT.colvars.traj".
colvars: Saving collective variables state to "rest.colvars.state".
colvars: Synchronizing (emptying the buffer of) trajectory file "Run2_Fusion_Es_3kT_Ens_05kT.colvars.traj".
colvars: Saving collective variables state to "rest.colvars.state".
colvars: Synchronizing (emptying the buffer of) trajectory file "Run2_Fusion_Es_3kT_Ens_05kT.colvars.traj".
colvars: Saving collective variables state to "rest.colvars.state".
colvars: Synchronizing (emptying the buffer of) trajectory file "Run2_Fusion_Es_3kT_Ens_05kT.colvars.traj".
colvars: Saving collective variables state to "rest.colvars.state".
colvars: Synchronizing (emptying the buffer of) trajectory file "Run2_Fusion_Es_3kT_Ens_05kT.colvars.traj".
colvars: Saving collective variables state to "rest.colvars.state".
colvars: Synchronizing (emptying the buffer of) trajectory file "Run2_Fusion_Es_3kT_Ens_05kT.colvars.traj".
colvars: Saving collective variables state to "rest.colvars.state".
colvars: Synchronizing (emptying the buffer of) trajectory file "Run2_Fusion_Es_3kT_Ens_05kT.colvars.traj".
colvars: Saving collective variables state to "rest.colvars.state".
colvars: Synchronizing (emptying the buffer of) trajectory file "Run2_Fusion_Es_3kT_Ens_05kT.colvars.traj".
colvars: Saving collective variables state to "rest.colvars.state".
colvars: Synchronizing (emptying the buffer of) trajectory file "Run2_Fusion_Es_3kT_Ens_05kT.colvars.traj".
colvars: Saving collective variables state to "rest.colvars.state".
colvars: Synchronizing (emptying the buffer of) trajectory file "Run2_Fusion_Es_3kT_Ens_05kT.colvars.traj".
colvars: Saving collective variables state to "rest.colvars.state".
colvars: Synchronizing (emptying the buffer of) trajectory file "Run2_Fusion_Es_3kT_Ens_05kT.colvars.traj".
colvars: Saving collective variables state to "rest.colvars.state".
colvars: Synchronizing (emptying the buffer of) trajectory file "Run2_Fusion_Es_3kT_Ens_05kT.colvars.traj".
colvars: Saving collective variables state to "rest.colvars.state".
colvars: Synchronizing (emptying the buffer of) trajectory file "Run2_Fusion_Es_3kT_Ens_05kT.colvars.traj".
colvars: Saving collective variables state to "rest.colvars.state".
colvars: Synchronizing (emptying the buffer of) trajectory file "Run2_Fusion_Es_3kT_Ens_05kT.colvars.traj".
colvars: Saving collective variables state to "rest.colvars.state".
colvars: Synchronizing (emptying the buffer of) trajectory file "Run2_Fusion_Es_3kT_Ens_05kT.colvars.traj".
colvars: Saving collective variables state to "rest.colvars.state".
colvars: Synchronizing (emptying the buffer of) trajectory file "Run2_Fusion_Es_3kT_Ens_05kT.colvars.traj".
colvars: Saving collective variables state to "rest.colvars.state".
colvars: Synchronizing (emptying the buffer of) trajectory file "Run2_Fusion_Es_3kT_Ens_05kT.colvars.traj".
colvars: Saving collective variables state to "rest.colvars.state".
 9000000   -7524.4016    1278.3185    9275.6264    3059.4327    5743.2874    311.20916    10520 
colvars: Synchronizing (emptying the buffer of) trajectory file "Run2_Fusion_Es_3kT_Ens_05kT.colvars.traj".
colvars: Saving collective variables state to "rest.colvars.state".
colvars: Synchronizing (emptying the buffer of) trajectory file "Run2_Fusion_Es_3kT_Ens_05kT.colvars.traj".
colvars: Saving collective variables state to "rest.colvars.state".
colvars: Synchronizing (emptying the buffer of) trajectory file "Run2_Fusion_Es_3kT_Ens_05kT.colvars.traj".
colvars: Saving collective variables state to "rest.colvars.state".
colvars: Synchronizing (emptying the buffer of) trajectory file "Run2_Fusion_Es_3kT_Ens_05kT.colvars.traj".
colvars: Saving collective variables state to "rest.colvars.state".
colvars: Synchronizing (emptying the buffer of) trajectory file "Run2_Fusion_Es_3kT_Ens_05kT.colvars.traj".
colvars: Saving collective variables state to "rest.colvars.state".
colvars: Synchronizing (emptying the buffer of) trajectory file "Run2_Fusion_Es_3kT_Ens_05kT.colvars.traj".
colvars: Saving collective variables state to "rest.colvars.state".
colvars: Synchronizing (emptying the buffer of) trajectory file "Run2_Fusion_Es_3kT_Ens_05kT.colvars.traj".
colvars: Saving collective variables state to "rest.colvars.state".
colvars: Synchronizing (emptying the buffer of) trajectory file "Run2_Fusion_Es_3kT_Ens_05kT.colvars.traj".
colvars: Saving collective variables state to "rest.colvars.state".
colvars: Synchronizing (emptying the buffer of) trajectory file "Run2_Fusion_Es_3kT_Ens_05kT.colvars.traj".
colvars: Saving collective variables state to "rest.colvars.state".
colvars: Synchronizing (emptying the buffer of) trajectory file "Run2_Fusion_Es_3kT_Ens_05kT.colvars.traj".
colvars: Saving collective variables state to "rest.colvars.state".
colvars: Synchronizing (emptying the buffer of) trajectory file "Run2_Fusion_Es_3kT_Ens_05kT.colvars.traj".
colvars: Saving collective variables state to "rest.colvars.state".
colvars: Synchronizing (emptying the buffer of) trajectory file "Run2_Fusion_Es_3kT_Ens_05kT.colvars.traj".
colvars: Saving collective variables state to "rest.colvars.state".
colvars: Synchronizing (emptying the buffer of) trajectory file "Run2_Fusion_Es_3kT_Ens_05kT.colvars.traj".
colvars: Saving collective variables state to "rest.colvars.state".
colvars: Synchronizing (emptying the buffer of) trajectory file "Run2_Fusion_Es_3kT_Ens_05kT.colvars.traj".
colvars: Saving collective variables state to "rest.colvars.state".
colvars: Synchronizing (emptying the buffer of) trajectory file "Run2_Fusion_Es_3kT_Ens_05kT.colvars.traj".
colvars: Saving collective variables state to "rest.colvars.state".
colvars: Synchronizing (emptying the buffer of) trajectory file "Run2_Fusion_Es_3kT_Ens_05kT.colvars.traj".
colvars: Saving collective variables state to "rest.colvars.state".
colvars: Synchronizing (emptying the buffer of) trajectory file "Run2_Fusion_Es_3kT_Ens_05kT.colvars.traj".
colvars: Saving collective variables state to "rest.colvars.state".
colvars: Synchronizing (emptying the buffer of) trajectory file "Run2_Fusion_Es_3kT_Ens_05kT.colvars.traj".
colvars: Saving collective variables state to "rest.colvars.state".
colvars: Synchronizing (emptying the buffer of) trajectory file "Run2_Fusion_Es_3kT_Ens_05kT.colvars.traj".
colvars: Saving collective variables state to "rest.colvars.state".
colvars: Synchronizing (emptying the buffer of) trajectory file "Run2_Fusion_Es_3kT_Ens_05kT.colvars.traj".
colvars: Saving collective variables state to "rest.colvars.state".
10000000    -7663.025    1156.1636    9251.0328    3070.2333    5748.9553    310.38402    10510 
colvars: Synchronizing (emptying the buffer of) trajectory file "Run2_Fusion_Es_3kT_Ens_05kT.colvars.traj".
colvars: Saving collective variables state to "rest.colvars.state".
colvars: Synchronizing (emptying the buffer of) trajectory file "Run2_Fusion_Es_3kT_Ens_05kT.colvars.traj".
colvars: Saving collective variables state to "rest.colvars.state".
colvars: Synchronizing (emptying the buffer of) trajectory file "Run2_Fusion_Es_3kT_Ens_05kT.colvars.traj".
colvars: Saving collective variables state to "rest.colvars.state".
colvars: Synchronizing (emptying the buffer of) trajectory file "Run2_Fusion_Es_3kT_Ens_05kT.colvars.traj".
colvars: Saving collective variables state to "rest.colvars.state".
colvars: Synchronizing (emptying the buffer of) trajectory file "Run2_Fusion_Es_3kT_Ens_05kT.colvars.traj".
colvars: Saving collective variables state to "rest.colvars.state".
colvars: Synchronizing (emptying the buffer of) trajectory file "Run2_Fusion_Es_3kT_Ens_05kT.colvars.traj".
colvars: Saving collective variables state to "rest.colvars.state".
colvars: Synchronizing (emptying the buffer of) trajectory file "Run2_Fusion_Es_3kT_Ens_05kT.colvars.traj".
colvars: Saving collective variables state to "rest.colvars.state".
colvars: Synchronizing (emptying the buffer of) trajectory file "Run2_Fusion_Es_3kT_Ens_05kT.colvars.traj".
colvars: Saving collective variables state to "rest.colvars.state".
colvars: Synchronizing (emptying the buffer of) trajectory file "Run2_Fusion_Es_3kT_Ens_05kT.colvars.traj".
colvars: Saving collective variables state to "rest.colvars.state".
colvars: Synchronizing (emptying the buffer of) trajectory file "Run2_Fusion_Es_3kT_Ens_05kT.colvars.traj".
colvars: Saving collective variables state to "rest.colvars.state".
colvars: Synchronizing (emptying the buffer of) trajectory file "Run2_Fusion_Es_3kT_Ens_05kT.colvars.traj".
colvars: Saving collective variables state to "rest.colvars.state".
colvars: Synchronizing (emptying the buffer of) trajectory file "Run2_Fusion_Es_3kT_Ens_05kT.colvars.traj".
colvars: Saving collective variables state to "rest.colvars.state".
colvars: Synchronizing (emptying the buffer of) trajectory file "Run2_Fusion_Es_3kT_Ens_05kT.colvars.traj".
colvars: Saving collective variables state to "rest.colvars.state".
colvars: Synchronizing (emptying the buffer of) trajectory file "Run2_Fusion_Es_3kT_Ens_05kT.colvars.traj".
colvars: Saving collective variables state to "rest.colvars.state".
colvars: Synchronizing (emptying the buffer of) trajectory file "Run2_Fusion_Es_3kT_Ens_05kT.colvars.traj".
colvars: Saving collective variables state to "rest.colvars.state".
colvars: Synchronizing (emptying the buffer of) trajectory file "Run2_Fusion_Es_3kT_Ens_05kT.colvars.traj".
colvars: Saving collective variables state to "rest.colvars.state".
colvars: Synchronizing (emptying the buffer of) trajectory file "Run2_Fusion_Es_3kT_Ens_05kT.colvars.traj".
colvars: Saving collective variables state to "rest.colvars.state".
colvars: Synchronizing (emptying the buffer of) trajectory file "Run2_Fusion_Es_3kT_Ens_05kT.colvars.traj".
colvars: Saving collective variables state to "rest.colvars.state".
colvars: Synchronizing (emptying the buffer of) trajectory file "Run2_Fusion_Es_3kT_Ens_05kT.colvars.traj".
colvars: Saving collective variables state to "rest.colvars.state".
colvars: Synchronizing (emptying the buffer of) trajectory file "Run2_Fusion_Es_3kT_Ens_05kT.colvars.traj".
colvars: Saving collective variables state to "rest.colvars.state".
11000000   -7747.7465    1078.0896    9021.0956    3075.2217    5750.6145    302.66933    10511 
colvars: Synchronizing (emptying the buffer of) trajectory file "Run2_Fusion_Es_3kT_Ens_05kT.colvars.traj".
colvars: Saving collective variables state to "rest.colvars.state".
colvars: Synchronizing (emptying the buffer of) trajectory file "Run2_Fusion_Es_3kT_Ens_05kT.colvars.traj".
colvars: Saving collective variables state to "rest.colvars.state".
colvars: Synchronizing (emptying the buffer of) trajectory file "Run2_Fusion_Es_3kT_Ens_05kT.colvars.traj".
colvars: Saving collective variables state to "rest.colvars.state".
colvars: Synchronizing (emptying the buffer of) trajectory file "Run2_Fusion_Es_3kT_Ens_05kT.colvars.traj".
colvars: Saving collective variables state to "rest.colvars.state".
colvars: Synchronizing (emptying the buffer of) trajectory file "Run2_Fusion_Es_3kT_Ens_05kT.colvars.traj".
colvars: Saving collective variables state to "rest.colvars.state".
colvars: Synchronizing (emptying the buffer of) trajectory file "Run2_Fusion_Es_3kT_Ens_05kT.colvars.traj".
colvars: Saving collective variables state to "rest.colvars.state".
colvars: Synchronizing (emptying the buffer of) trajectory file "Run2_Fusion_Es_3kT_Ens_05kT.colvars.traj".
colvars: Saving collective variables state to "rest.colvars.state".
colvars: Synchronizing (emptying the buffer of) trajectory file "Run2_Fusion_Es_3kT_Ens_05kT.colvars.traj".
colvars: Saving collective variables state to "rest.colvars.state".
colvars: Synchronizing (emptying the buffer of) trajectory file "Run2_Fusion_Es_3kT_Ens_05kT.colvars.traj".
colvars: Saving collective variables state to "rest.colvars.state".
colvars: Synchronizing (emptying the buffer of) trajectory file "Run2_Fusion_Es_3kT_Ens_05kT.colvars.traj".
colvars: Saving collective variables state to "rest.colvars.state".
colvars: Synchronizing (emptying the buffer of) trajectory file "Run2_Fusion_Es_3kT_Ens_05kT.colvars.traj".
colvars: Saving collective variables state to "rest.colvars.state".
colvars: Synchronizing (emptying the buffer of) trajectory file "Run2_Fusion_Es_3kT_Ens_05kT.colvars.traj".
colvars: Saving collective variables state to "rest.colvars.state".
colvars: Synchronizing (emptying the buffer of) trajectory file "Run2_Fusion_Es_3kT_Ens_05kT.colvars.traj".
colvars: Saving collective variables state to "rest.colvars.state".
colvars: Synchronizing (emptying the buffer of) trajectory file "Run2_Fusion_Es_3kT_Ens_05kT.colvars.traj".
colvars: Saving collective variables state to "rest.colvars.state".
colvars: Synchronizing (emptying the buffer of) trajectory file "Run2_Fusion_Es_3kT_Ens_05kT.colvars.traj".
colvars: Saving collective variables state to "rest.colvars.state".
colvars: Synchronizing (emptying the buffer of) trajectory file "Run2_Fusion_Es_3kT_Ens_05kT.colvars.traj".
colvars: Saving collective variables state to "rest.colvars.state".
colvars: Synchronizing (emptying the buffer of) trajectory file "Run2_Fusion_Es_3kT_Ens_05kT.colvars.traj".
colvars: Saving collective variables state to "rest.colvars.state".
colvars: Synchronizing (emptying the buffer of) trajectory file "Run2_Fusion_Es_3kT_Ens_05kT.colvars.traj".
colvars: Saving collective variables state to "rest.colvars.state".
colvars: Synchronizing (emptying the buffer of) trajectory file "Run2_Fusion_Es_3kT_Ens_05kT.colvars.traj".
colvars: Saving collective variables state to "rest.colvars.state".
colvars: Synchronizing (emptying the buffer of) trajectory file "Run2_Fusion_Es_3kT_Ens_05kT.colvars.traj".
colvars: Saving collective variables state to "rest.colvars.state".
12000000   -7652.5822    1149.7511    9213.0644    3112.9708    5689.3626    309.11013    10501 
colvars: Synchronizing (emptying the buffer of) trajectory file "Run2_Fusion_Es_3kT_Ens_05kT.colvars.traj".
colvars: Saving collective variables state to "rest.colvars.state".
colvars: Synchronizing (emptying the buffer of) trajectory file "Run2_Fusion_Es_3kT_Ens_05kT.colvars.traj".
colvars: Saving collective variables state to "rest.colvars.state".
colvars: Synchronizing (emptying the buffer of) trajectory file "Run2_Fusion_Es_3kT_Ens_05kT.colvars.traj".
colvars: Saving collective variables state to "rest.colvars.state".
colvars: Synchronizing (emptying the buffer of) trajectory file "Run2_Fusion_Es_3kT_Ens_05kT.colvars.traj".
colvars: Saving collective variables state to "rest.colvars.state".
colvars: Synchronizing (emptying the buffer of) trajectory file "Run2_Fusion_Es_3kT_Ens_05kT.colvars.traj".
colvars: Saving collective variables state to "rest.colvars.state".
colvars: Synchronizing (emptying the buffer of) trajectory file "Run2_Fusion_Es_3kT_Ens_05kT.colvars.traj".
colvars: Saving collective variables state to "rest.colvars.state".
colvars: Synchronizing (emptying the buffer of) trajectory file "Run2_Fusion_Es_3kT_Ens_05kT.colvars.traj".
colvars: Saving collective variables state to "rest.colvars.state".
colvars: Synchronizing (emptying the buffer of) trajectory file "Run2_Fusion_Es_3kT_Ens_05kT.colvars.traj".
colvars: Saving collective variables state to "rest.colvars.state".
colvars: Synchronizing (emptying the buffer of) trajectory file "Run2_Fusion_Es_3kT_Ens_05kT.colvars.traj".
colvars: Saving collective variables state to "rest.colvars.state".
colvars: Synchronizing (emptying the buffer of) trajectory file "Run2_Fusion_Es_3kT_Ens_05kT.colvars.traj".
colvars: Saving collective variables state to "rest.colvars.state".
colvars: Synchronizing (emptying the buffer of) trajectory file "Run2_Fusion_Es_3kT_Ens_05kT.colvars.traj".
colvars: Saving collective variables state to "rest.colvars.state".
colvars: Synchronizing (emptying the buffer of) trajectory file "Run2_Fusion_Es_3kT_Ens_05kT.colvars.traj".
colvars: Saving collective variables state to "rest.colvars.state".
colvars: Synchronizing (emptying the buffer of) trajectory file "Run2_Fusion_Es_3kT_Ens_05kT.colvars.traj".
colvars: Saving collective variables state to "rest.colvars.state".
colvars: Synchronizing (emptying the buffer of) trajectory file "Run2_Fusion_Es_3kT_Ens_05kT.colvars.traj".
colvars: Saving collective variables state to "rest.colvars.state".
colvars: Synchronizing (emptying the buffer of) trajectory file "Run2_Fusion_Es_3kT_Ens_05kT.colvars.traj".
colvars: Saving collective variables state to "rest.colvars.state".
colvars: Synchronizing (emptying the buffer of) trajectory file "Run2_Fusion_Es_3kT_Ens_05kT.colvars.traj".
colvars: Saving collective variables state to "rest.colvars.state".
colvars: Synchronizing (emptying the buffer of) trajectory file "Run2_Fusion_Es_3kT_Ens_05kT.colvars.traj".
colvars: Saving collective variables state to "rest.colvars.state".
colvars: Synchronizing (emptying the buffer of) trajectory file "Run2_Fusion_Es_3kT_Ens_05kT.colvars.traj".
colvars: Saving collective variables state to "rest.colvars.state".
colvars: Synchronizing (emptying the buffer of) trajectory file "Run2_Fusion_Es_3kT_Ens_05kT.colvars.traj".
colvars: Saving collective variables state to "rest.colvars.state".
colvars: Synchronizing (emptying the buffer of) trajectory file "Run2_Fusion_Es_3kT_Ens_05kT.colvars.traj".
colvars: Saving collective variables state to "rest.colvars.state".
13000000   -7684.6771    1154.0197    9179.9846    3084.6795    5754.0173    308.00026    10503 
colvars: Synchronizing (emptying the buffer of) trajectory file "Run2_Fusion_Es_3kT_Ens_05kT.colvars.traj".
colvars: Saving collective variables state to "rest.colvars.state".
colvars: Synchronizing (emptying the buffer of) trajectory file "Run2_Fusion_Es_3kT_Ens_05kT.colvars.traj".
colvars: Saving collective variables state to "rest.colvars.state".
colvars: Synchronizing (emptying the buffer of) trajectory file "Run2_Fusion_Es_3kT_Ens_05kT.colvars.traj".
colvars: Saving collective variables state to "rest.colvars.state".
colvars: Synchronizing (emptying the buffer of) trajectory file "Run2_Fusion_Es_3kT_Ens_05kT.colvars.traj".
colvars: Saving collective variables state to "rest.colvars.state".
colvars: Synchronizing (emptying the buffer of) trajectory file "Run2_Fusion_Es_3kT_Ens_05kT.colvars.traj".
colvars: Saving collective variables state to "rest.colvars.state".
colvars: Synchronizing (emptying the buffer of) trajectory file "Run2_Fusion_Es_3kT_Ens_05kT.colvars.traj".
colvars: Saving collective variables state to "rest.colvars.state".
colvars: Synchronizing (emptying the buffer of) trajectory file "Run2_Fusion_Es_3kT_Ens_05kT.colvars.traj".
colvars: Saving collective variables state to "rest.colvars.state".
colvars: Synchronizing (emptying the buffer of) trajectory file "Run2_Fusion_Es_3kT_Ens_05kT.colvars.traj".
colvars: Saving collective variables state to "rest.colvars.state".
colvars: Synchronizing (emptying the buffer of) trajectory file "Run2_Fusion_Es_3kT_Ens_05kT.colvars.traj".
colvars: Saving collective variables state to "rest.colvars.state".
colvars: Synchronizing (emptying the buffer of) trajectory file "Run2_Fusion_Es_3kT_Ens_05kT.colvars.traj".
colvars: Saving collective variables state to "rest.colvars.state".
colvars: Synchronizing (emptying the buffer of) trajectory file "Run2_Fusion_Es_3kT_Ens_05kT.colvars.traj".
colvars: Saving collective variables state to "rest.colvars.state".
colvars: Synchronizing (emptying the buffer of) trajectory file "Run2_Fusion_Es_3kT_Ens_05kT.colvars.traj".
colvars: Saving collective variables state to "rest.colvars.state".
colvars: Synchronizing (emptying the buffer of) trajectory file "Run2_Fusion_Es_3kT_Ens_05kT.colvars.traj".
colvars: Saving collective variables state to "rest.colvars.state".
colvars: Synchronizing (emptying the buffer of) trajectory file "Run2_Fusion_Es_3kT_Ens_05kT.colvars.traj".
colvars: Saving collective variables state to "rest.colvars.state".
colvars: Synchronizing (emptying the buffer of) trajectory file "Run2_Fusion_Es_3kT_Ens_05kT.colvars.traj".
colvars: Saving collective variables state to "rest.colvars.state".
colvars: Synchronizing (emptying the buffer of) trajectory file "Run2_Fusion_Es_3kT_Ens_05kT.colvars.traj".
colvars: Saving collective variables state to "rest.colvars.state".
colvars: Synchronizing (emptying the buffer of) trajectory file "Run2_Fusion_Es_3kT_Ens_05kT.colvars.traj".
colvars: Saving collective variables state to "rest.colvars.state".
colvars: Synchronizing (emptying the buffer of) trajectory file "Run2_Fusion_Es_3kT_Ens_05kT.colvars.traj".
colvars: Saving collective variables state to "rest.colvars.state".
colvars: Synchronizing (emptying the buffer of) trajectory file "Run2_Fusion_Es_3kT_Ens_05kT.colvars.traj".
colvars: Saving collective variables state to "rest.colvars.state".
colvars: Synchronizing (emptying the buffer of) trajectory file "Run2_Fusion_Es_3kT_Ens_05kT.colvars.traj".
colvars: Saving collective variables state to "rest.colvars.state".
14000000   -7624.8103    1242.1499    9307.4605     3110.215    5756.7451    312.27724    10503 
colvars: Synchronizing (emptying the buffer of) trajectory file "Run2_Fusion_Es_3kT_Ens_05kT.colvars.traj".
colvars: Saving collective variables state to "rest.colvars.state".
colvars: Synchronizing (emptying the buffer of) trajectory file "Run2_Fusion_Es_3kT_Ens_05kT.colvars.traj".
colvars: Saving collective variables state to "rest.colvars.state".
colvars: Synchronizing (emptying the buffer of) trajectory file "Run2_Fusion_Es_3kT_Ens_05kT.colvars.traj".
colvars: Saving collective variables state to "rest.colvars.state".
colvars: Synchronizing (emptying the buffer of) trajectory file "Run2_Fusion_Es_3kT_Ens_05kT.colvars.traj".
colvars: Saving collective variables state to "rest.colvars.state".
colvars: Synchronizing (emptying the buffer of) trajectory file "Run2_Fusion_Es_3kT_Ens_05kT.colvars.traj".
colvars: Saving collective variables state to "rest.colvars.state".
colvars: Synchronizing (emptying the buffer of) trajectory file "Run2_Fusion_Es_3kT_Ens_05kT.colvars.traj".
colvars: Saving collective variables state to "rest.colvars.state".
colvars: Synchronizing (emptying the buffer of) trajectory file "Run2_Fusion_Es_3kT_Ens_05kT.colvars.traj".
colvars: Saving collective variables state to "rest.colvars.state".
colvars: Synchronizing (emptying the buffer of) trajectory file "Run2_Fusion_Es_3kT_Ens_05kT.colvars.traj".
colvars: Saving collective variables state to "rest.colvars.state".
colvars: Synchronizing (emptying the buffer of) trajectory file "Run2_Fusion_Es_3kT_Ens_05kT.colvars.traj".
colvars: Saving collective variables state to "rest.colvars.state".
colvars: Synchronizing (emptying the buffer of) trajectory file "Run2_Fusion_Es_3kT_Ens_05kT.colvars.traj".
colvars: Saving collective variables state to "rest.colvars.state".
colvars: Synchronizing (emptying the buffer of) trajectory file "Run2_Fusion_Es_3kT_Ens_05kT.colvars.traj".
colvars: Saving collective variables state to "rest.colvars.state".
colvars: Synchronizing (emptying the buffer of) trajectory file "Run2_Fusion_Es_3kT_Ens_05kT.colvars.traj".
colvars: Saving collective variables state to "rest.colvars.state".
colvars: Synchronizing (emptying the buffer of) trajectory file "Run2_Fusion_Es_3kT_Ens_05kT.colvars.traj".
colvars: Saving collective variables state to "rest.colvars.state".
colvars: Synchronizing (emptying the buffer of) trajectory file "Run2_Fusion_Es_3kT_Ens_05kT.colvars.traj".
colvars: Saving collective variables state to "rest.colvars.state".
colvars: Synchronizing (emptying the buffer of) trajectory file "Run2_Fusion_Es_3kT_Ens_05kT.colvars.traj".
colvars: Saving collective variables state to "rest.colvars.state".
colvars: Synchronizing (emptying the buffer of) trajectory file "Run2_Fusion_Es_3kT_Ens_05kT.colvars.traj".
colvars: Saving collective variables state to "rest.colvars.state".
colvars: Synchronizing (emptying the buffer of) trajectory file "Run2_Fusion_Es_3kT_Ens_05kT.colvars.traj".
colvars: Saving collective variables state to "rest.colvars.state".
colvars: Synchronizing (emptying the buffer of) trajectory file "Run2_Fusion_Es_3kT_Ens_05kT.colvars.traj".
colvars: Saving collective variables state to "rest.colvars.state".
colvars: Synchronizing (emptying the buffer of) trajectory file "Run2_Fusion_Es_3kT_Ens_05kT.colvars.traj".
colvars: Saving collective variables state to "rest.colvars.state".
colvars: Synchronizing (emptying the buffer of) trajectory file "Run2_Fusion_Es_3kT_Ens_05kT.colvars.traj".
colvars: Saving collective variables state to "rest.colvars.state".
15000000   -7592.3609    1137.9045    9219.7064    3066.6599    5663.6055    309.33298    10516 
colvars: Synchronizing (emptying the buffer of) trajectory file "Run2_Fusion_Es_3kT_Ens_05kT.colvars.traj".
colvars: Saving collective variables state to "rest.colvars.state".
colvars: Synchronizing (emptying the buffer of) trajectory file "Run2_Fusion_Es_3kT_Ens_05kT.colvars.traj".
colvars: Saving collective variables state to "rest.colvars.state".
colvars: Synchronizing (emptying the buffer of) trajectory file "Run2_Fusion_Es_3kT_Ens_05kT.colvars.traj".
colvars: Saving collective variables state to "rest.colvars.state".
colvars: Synchronizing (emptying the buffer of) trajectory file "Run2_Fusion_Es_3kT_Ens_05kT.colvars.traj".
colvars: Saving collective variables state to "rest.colvars.state".
colvars: Synchronizing (emptying the buffer of) trajectory file "Run2_Fusion_Es_3kT_Ens_05kT.colvars.traj".
colvars: Saving collective variables state to "rest.colvars.state".
colvars: Synchronizing (emptying the buffer of) trajectory file "Run2_Fusion_Es_3kT_Ens_05kT.colvars.traj".
colvars: Saving collective variables state to "rest.colvars.state".
colvars: Synchronizing (emptying the buffer of) trajectory file "Run2_Fusion_Es_3kT_Ens_05kT.colvars.traj".
colvars: Saving collective variables state to "rest.colvars.state".
colvars: Synchronizing (emptying the buffer of) trajectory file "Run2_Fusion_Es_3kT_Ens_05kT.colvars.traj".
colvars: Saving collective variables state to "rest.colvars.state".
colvars: Synchronizing (emptying the buffer of) trajectory file "Run2_Fusion_Es_3kT_Ens_05kT.colvars.traj".
colvars: Saving collective variables state to "rest.colvars.state".
colvars: Synchronizing (emptying the buffer of) trajectory file "Run2_Fusion_Es_3kT_Ens_05kT.colvars.traj".
colvars: Saving collective variables state to "rest.colvars.state".
colvars: Synchronizing (emptying the buffer of) trajectory file "Run2_Fusion_Es_3kT_Ens_05kT.colvars.traj".
colvars: Saving collective variables state to "rest.colvars.state".
colvars: Synchronizing (emptying the buffer of) trajectory file "Run2_Fusion_Es_3kT_Ens_05kT.colvars.traj".
colvars: Saving collective variables state to "rest.colvars.state".
colvars: Synchronizing (emptying the buffer of) trajectory file "Run2_Fusion_Es_3kT_Ens_05kT.colvars.traj".
colvars: Saving collective variables state to "rest.colvars.state".
colvars: Synchronizing (emptying the buffer of) trajectory file "Run2_Fusion_Es_3kT_Ens_05kT.colvars.traj".
colvars: Saving collective variables state to "rest.colvars.state".
colvars: Synchronizing (emptying the buffer of) trajectory file "Run2_Fusion_Es_3kT_Ens_05kT.colvars.traj".
colvars: Saving collective variables state to "rest.colvars.state".
colvars: Synchronizing (emptying the buffer of) trajectory file "Run2_Fusion_Es_3kT_Ens_05kT.colvars.traj".
colvars: Saving collective variables state to "rest.colvars.state".
colvars: Synchronizing (emptying the buffer of) trajectory file "Run2_Fusion_Es_3kT_Ens_05kT.colvars.traj".
colvars: Saving collective variables state to "rest.colvars.state".
colvars: Synchronizing (emptying the buffer of) trajectory file "Run2_Fusion_Es_3kT_Ens_05kT.colvars.traj".
colvars: Saving collective variables state to "rest.colvars.state".
colvars: Synchronizing (emptying the buffer of) trajectory file "Run2_Fusion_Es_3kT_Ens_05kT.colvars.traj".
colvars: Saving collective variables state to "rest.colvars.state".
colvars: Synchronizing (emptying the buffer of) trajectory file "Run2_Fusion_Es_3kT_Ens_05kT.colvars.traj".
colvars: Saving collective variables state to "rest.colvars.state".
16000000   -7524.0567    1298.1639    9289.9171    3109.1779    5713.0427    311.68863    10513 
colvars: Synchronizing (emptying the buffer of) trajectory file "Run2_Fusion_Es_3kT_Ens_05kT.colvars.traj".
colvars: Saving collective variables state to "rest.colvars.state".
colvars: Synchronizing (emptying the buffer of) trajectory file "Run2_Fusion_Es_3kT_Ens_05kT.colvars.traj".
colvars: Saving collective variables state to "rest.colvars.state".
colvars: Synchronizing (emptying the buffer of) trajectory file "Run2_Fusion_Es_3kT_Ens_05kT.colvars.traj".
colvars: Saving collective variables state to "rest.colvars.state".
colvars: Synchronizing (emptying the buffer of) trajectory file "Run2_Fusion_Es_3kT_Ens_05kT.colvars.traj".
colvars: Saving collective variables state to "rest.colvars.state".
colvars: Synchronizing (emptying the buffer of) trajectory file "Run2_Fusion_Es_3kT_Ens_05kT.colvars.traj".
colvars: Saving collective variables state to "rest.colvars.state".
colvars: Synchronizing (emptying the buffer of) trajectory file "Run2_Fusion_Es_3kT_Ens_05kT.colvars.traj".
colvars: Saving collective variables state to "rest.colvars.state".
colvars: Synchronizing (emptying the buffer of) trajectory file "Run2_Fusion_Es_3kT_Ens_05kT.colvars.traj".
colvars: Saving collective variables state to "rest.colvars.state".
colvars: Synchronizing (emptying the buffer of) trajectory file "Run2_Fusion_Es_3kT_Ens_05kT.colvars.traj".
colvars: Saving collective variables state to "rest.colvars.state".
colvars: Synchronizing (emptying the buffer of) trajectory file "Run2_Fusion_Es_3kT_Ens_05kT.colvars.traj".
colvars: Saving collective variables state to "rest.colvars.state".
colvars: Synchronizing (emptying the buffer of) trajectory file "Run2_Fusion_Es_3kT_Ens_05kT.colvars.traj".
colvars: Saving collective variables state to "rest.colvars.state".
colvars: Synchronizing (emptying the buffer of) trajectory file "Run2_Fusion_Es_3kT_Ens_05kT.colvars.traj".
colvars: Saving collective variables state to "rest.colvars.state".
colvars: Synchronizing (emptying the buffer of) trajectory file "Run2_Fusion_Es_3kT_Ens_05kT.colvars.traj".
colvars: Saving collective variables state to "rest.colvars.state".
colvars: Synchronizing (emptying the buffer of) trajectory file "Run2_Fusion_Es_3kT_Ens_05kT.colvars.traj".
colvars: Saving collective variables state to "rest.colvars.state".
colvars: Synchronizing (emptying the buffer of) trajectory file "Run2_Fusion_Es_3kT_Ens_05kT.colvars.traj".
colvars: Saving collective variables state to "rest.colvars.state".
colvars: Synchronizing (emptying the buffer of) trajectory file "Run2_Fusion_Es_3kT_Ens_05kT.colvars.traj".
colvars: Saving collective variables state to "rest.colvars.state".
colvars: Synchronizing (emptying the buffer of) trajectory file "Run2_Fusion_Es_3kT_Ens_05kT.colvars.traj".
colvars: Saving collective variables state to "rest.colvars.state".
colvars: Synchronizing (emptying the buffer of) trajectory file "Run2_Fusion_Es_3kT_Ens_05kT.colvars.traj".
colvars: Saving collective variables state to "rest.colvars.state".
colvars: Synchronizing (emptying the buffer of) trajectory file "Run2_Fusion_Es_3kT_Ens_05kT.colvars.traj".
colvars: Saving collective variables state to "rest.colvars.state".
colvars: Synchronizing (emptying the buffer of) trajectory file "Run2_Fusion_Es_3kT_Ens_05kT.colvars.traj".
colvars: Saving collective variables state to "rest.colvars.state".
colvars: Synchronizing (emptying the buffer of) trajectory file "Run2_Fusion_Es_3kT_Ens_05kT.colvars.traj".
colvars: Saving collective variables state to "rest.colvars.state".
17000000   -7597.3808    1275.0903    9069.5683    3152.5541     5719.917    304.29565    10518 
colvars: Synchronizing (emptying the buffer of) trajectory file "Run2_Fusion_Es_3kT_Ens_05kT.colvars.traj".
colvars: Saving collective variables state to "rest.colvars.state".
colvars: Synchronizing (emptying the buffer of) trajectory file "Run2_Fusion_Es_3kT_Ens_05kT.colvars.traj".
colvars: Saving collective variables state to "rest.colvars.state".
colvars: Synchronizing (emptying the buffer of) trajectory file "Run2_Fusion_Es_3kT_Ens_05kT.colvars.traj".
colvars: Saving collective variables state to "rest.colvars.state".
colvars: Synchronizing (emptying the buffer of) trajectory file "Run2_Fusion_Es_3kT_Ens_05kT.colvars.traj".
colvars: Saving collective variables state to "rest.colvars.state".
colvars: Synchronizing (emptying the buffer of) trajectory file "Run2_Fusion_Es_3kT_Ens_05kT.colvars.traj".
colvars: Saving collective variables state to "rest.colvars.state".
colvars: Synchronizing (emptying the buffer of) trajectory file "Run2_Fusion_Es_3kT_Ens_05kT.colvars.traj".
colvars: Saving collective variables state to "rest.colvars.state".
colvars: Synchronizing (emptying the buffer of) trajectory file "Run2_Fusion_Es_3kT_Ens_05kT.colvars.traj".
colvars: Saving collective variables state to "rest.colvars.state".
colvars: Synchronizing (emptying the buffer of) trajectory file "Run2_Fusion_Es_3kT_Ens_05kT.colvars.traj".
colvars: Saving collective variables state to "rest.colvars.state".
colvars: Synchronizing (emptying the buffer of) trajectory file "Run2_Fusion_Es_3kT_Ens_05kT.colvars.traj".
colvars: Saving collective variables state to "rest.colvars.state".
colvars: Synchronizing (emptying the buffer of) trajectory file "Run2_Fusion_Es_3kT_Ens_05kT.colvars.traj".
colvars: Saving collective variables state to "rest.colvars.state".
colvars: Synchronizing (emptying the buffer of) trajectory file "Run2_Fusion_Es_3kT_Ens_05kT.colvars.traj".
colvars: Saving collective variables state to "rest.colvars.state".
colvars: Synchronizing (emptying the buffer of) trajectory file "Run2_Fusion_Es_3kT_Ens_05kT.colvars.traj".
colvars: Saving collective variables state to "rest.colvars.state".
colvars: Synchronizing (emptying the buffer of) trajectory file "Run2_Fusion_Es_3kT_Ens_05kT.colvars.traj".
colvars: Saving collective variables state to "rest.colvars.state".
colvars: Synchronizing (emptying the buffer of) trajectory file "Run2_Fusion_Es_3kT_Ens_05kT.colvars.traj".
colvars: Saving collective variables state to "rest.colvars.state".
colvars: Synchronizing (emptying the buffer of) trajectory file "Run2_Fusion_Es_3kT_Ens_05kT.colvars.traj".
colvars: Saving collective variables state to "rest.colvars.state".
colvars: Synchronizing (emptying the buffer of) trajectory file "Run2_Fusion_Es_3kT_Ens_05kT.colvars.traj".
colvars: Saving collective variables state to "rest.colvars.state".
colvars: Synchronizing (emptying the buffer of) trajectory file "Run2_Fusion_Es_3kT_Ens_05kT.colvars.traj".
colvars: Saving collective variables state to "rest.colvars.state".
colvars: Synchronizing (emptying the buffer of) trajectory file "Run2_Fusion_Es_3kT_Ens_05kT.colvars.traj".
colvars: Saving collective variables state to "rest.colvars.state".
colvars: Synchronizing (emptying the buffer of) trajectory file "Run2_Fusion_Es_3kT_Ens_05kT.colvars.traj".
colvars: Saving collective variables state to "rest.colvars.state".
colvars: Synchronizing (emptying the buffer of) trajectory file "Run2_Fusion_Es_3kT_Ens_05kT.colvars.traj".
colvars: Saving collective variables state to "rest.colvars.state".
18000000   -7675.7529    1137.8013    9401.2308    3062.2661    5751.2881    315.42336    10505 
colvars: Synchronizing (emptying the buffer of) trajectory file "Run2_Fusion_Es_3kT_Ens_05kT.colvars.traj".
colvars: Saving collective variables state to "rest.colvars.state".
colvars: Synchronizing (emptying the buffer of) trajectory file "Run2_Fusion_Es_3kT_Ens_05kT.colvars.traj".
colvars: Saving collective variables state to "rest.colvars.state".
[...]
colvars: Saving collective variables state to "rest.colvars.state".
colvars: Synchronizing (emptying the buffer of) trajectory file "Run2_Fusion_Es_3kT_Ens_05kT.colvars.traj".
colvars: Saving collective variables state to "rest.colvars.state".
595000000   -7671.5212    1078.9742     9249.135    3102.4258    5648.0696    310.32034    10505 
colvars: Synchronizing (emptying the buffer of) trajectory file "Run2_Fusion_Es_3kT_Ens_05kT.colvars.traj".
colvars: Saving collective variables state to "rest.colvars.state".
colvars: Synchronizing (emptying the buffer of) trajectory file "Run2_Fusion_Es_3kT_Ens_05kT.colvars.traj".
colvars: Saving collective variables state to "rest.colvars.state".
colvars: Synchronizing (emptying the buffer of) trajectory file "Run2_Fusion_Es_3kT_Ens_05kT.colvars.traj".
colvars: Saving collective variables state to "rest.colvars.state".
colvars: Synchronizing (emptying the buffer of) trajectory file "Run2_Fusion_Es_3kT_Ens_05kT.colvars.traj".
colvars: Saving collective variables state to "rest.colvars.state".
colvars: Synchronizing (emptying the buffer of) trajectory file "Run2_Fusion_Es_3kT_Ens_05kT.colvars.traj".
colvars: Saving collective variables state to "rest.colvars.state".
colvars: Synchronizing (emptying the buffer of) trajectory file "Run2_Fusion_Es_3kT_Ens_05kT.colvars.traj".
colvars: Saving collective variables state to "rest.colvars.state".
colvars: Synchronizing (emptying the buffer of) trajectory file "Run2_Fusion_Es_3kT_Ens_05kT.colvars.traj".
colvars: Saving collective variables state to "rest.colvars.state".
colvars: Synchronizing (emptying the buffer of) trajectory file "Run2_Fusion_Es_3kT_Ens_05kT.colvars.traj".
colvars: Saving collective variables state to "rest.colvars.state".
colvars: Synchronizing (emptying the buffer of) trajectory file "Run2_Fusion_Es_3kT_Ens_05kT.colvars.traj".
colvars: Saving collective variables state to "rest.colvars.state".
colvars: Synchronizing (emptying the buffer of) trajectory file "Run2_Fusion_Es_3kT_Ens_05kT.colvars.traj".
colvars: Saving collective variables state to "rest.colvars.state".
colvars: Synchronizing (emptying the buffer of) trajectory file "Run2_Fusion_Es_3kT_Ens_05kT.colvars.traj".
colvars: Saving collective variables state to "rest.colvars.state".
colvars: Synchronizing (emptying the buffer of) trajectory file "Run2_Fusion_Es_3kT_Ens_05kT.colvars.traj".
colvars: Saving collective variables state to "rest.colvars.state".
colvars: Synchronizing (emptying the buffer of) trajectory file "Run2_Fusion_Es_3kT_Ens_05kT.colvars.traj".
colvars: Saving collective variables state to "rest.colvars.state".
colvars: Synchronizing (emptying the buffer of) trajectory file "Run2_Fusion_Es_3kT_Ens_05kT.colvars.traj".
colvars: Saving collective variables state to "rest.colvars.state".
colvars: Synchronizing (emptying the buffer of) trajectory file "Run2_Fusion_Es_3kT_Ens_05kT.colvars.traj".
colvars: Saving collective variables state to "rest.colvars.state".
colvars: Synchronizing (emptying the buffer of) trajectory file "Run2_Fusion_Es_3kT_Ens_05kT.colvars.traj".
colvars: Saving collective variables state to "rest.colvars.state".
colvars: Synchronizing (emptying the buffer of) trajectory file "Run2_Fusion_Es_3kT_Ens_05kT.colvars.traj".
colvars: Saving collective variables state to "rest.colvars.state".
colvars: Synchronizing (emptying the buffer of) trajectory file "Run2_Fusion_Es_3kT_Ens_05kT.colvars.traj".
colvars: Saving collective variables state to "rest.colvars.state".
colvars: Synchronizing (emptying the buffer of) trajectory file "Run2_Fusion_Es_3kT_Ens_05kT.colvars.traj".
colvars: Saving collective variables state to "rest.colvars.state".
colvars: Synchronizing (emptying the buffer of) trajectory file "Run2_Fusion_Es_3kT_Ens_05kT.colvars.traj".
colvars: Saving collective variables state to "rest.colvars.state".
596000000   -7933.9197    746.22128    9336.0531    3049.9283    5630.2126    313.23656    10502 
colvars: Synchronizing (emptying the buffer of) trajectory file "Run2_Fusion_Es_3kT_Ens_05kT.colvars.traj".
colvars: Saving collective variables state to "rest.colvars.state".
colvars: Synchronizing (emptying the buffer of) trajectory file "Run2_Fusion_Es_3kT_Ens_05kT.colvars.traj".
colvars: Saving collective variables state to "rest.colvars.state".
colvars: Synchronizing (emptying the buffer of) trajectory file "Run2_Fusion_Es_3kT_Ens_05kT.colvars.traj".
colvars: Saving collective variables state to "rest.colvars.state".
colvars: Synchronizing (emptying the buffer of) trajectory file "Run2_Fusion_Es_3kT_Ens_05kT.colvars.traj".
colvars: Saving collective variables state to "rest.colvars.state".
colvars: Synchronizing (emptying the buffer of) trajectory file "Run2_Fusion_Es_3kT_Ens_05kT.colvars.traj".
colvars: Saving collective variables state to "rest.colvars.state".
colvars: Synchronizing (emptying the buffer of) trajectory file "Run2_Fusion_Es_3kT_Ens_05kT.colvars.traj".
colvars: Saving collective variables state to "rest.colvars.state".
colvars: Synchronizing (emptying the buffer of) trajectory file "Run2_Fusion_Es_3kT_Ens_05kT.colvars.traj".
colvars: Saving collective variables state to "rest.colvars.state".
colvars: Synchronizing (emptying the buffer of) trajectory file "Run2_Fusion_Es_3kT_Ens_05kT.colvars.traj".
colvars: Saving collective variables state to "rest.colvars.state".
colvars: Synchronizing (emptying the buffer of) trajectory file "Run2_Fusion_Es_3kT_Ens_05kT.colvars.traj".
colvars: Saving collective variables state to "rest.colvars.state".
colvars: Synchronizing (emptying the buffer of) trajectory file "Run2_Fusion_Es_3kT_Ens_05kT.colvars.traj".
colvars: Saving collective variables state to "rest.colvars.state".
colvars: Synchronizing (emptying the buffer of) trajectory file "Run2_Fusion_Es_3kT_Ens_05kT.colvars.traj".
colvars: Saving collective variables state to "rest.colvars.state".
colvars: Synchronizing (emptying the buffer of) trajectory file "Run2_Fusion_Es_3kT_Ens_05kT.colvars.traj".
colvars: Saving collective variables state to "rest.colvars.state".
colvars: Synchronizing (emptying the buffer of) trajectory file "Run2_Fusion_Es_3kT_Ens_05kT.colvars.traj".
colvars: Saving collective variables state to "rest.colvars.state".
colvars: Synchronizing (emptying the buffer of) trajectory file "Run2_Fusion_Es_3kT_Ens_05kT.colvars.traj".
colvars: Saving collective variables state to "rest.colvars.state".
colvars: Synchronizing (emptying the buffer of) trajectory file "Run2_Fusion_Es_3kT_Ens_05kT.colvars.traj".
colvars: Saving collective variables state to "rest.colvars.state".
colvars: Synchronizing (emptying the buffer of) trajectory file "Run2_Fusion_Es_3kT_Ens_05kT.colvars.traj".
colvars: Saving collective variables state to "rest.colvars.state".
colvars: Synchronizing (emptying the buffer of) trajectory file "Run2_Fusion_Es_3kT_Ens_05kT.colvars.traj".
colvars: Saving collective variables state to "rest.colvars.state".
colvars: Synchronizing (emptying the buffer of) trajectory file "Run2_Fusion_Es_3kT_Ens_05kT.colvars.traj".
colvars: Saving collective variables state to "rest.colvars.state".
colvars: Synchronizing (emptying the buffer of) trajectory file "Run2_Fusion_Es_3kT_Ens_05kT.colvars.traj".
colvars: Saving collective variables state to "rest.colvars.state".
colvars: Synchronizing (emptying the buffer of) trajectory file "Run2_Fusion_Es_3kT_Ens_05kT.colvars.traj".
colvars: Saving collective variables state to "rest.colvars.state".
597000000   -8002.2508     698.9665    9221.4902    3067.0844    5634.1329    309.39283    10508 
colvars: Synchronizing (emptying the buffer of) trajectory file "Run2_Fusion_Es_3kT_Ens_05kT.colvars.traj".
colvars: Saving collective variables state to "rest.colvars.state".
colvars: Synchronizing (emptying the buffer of) trajectory file "Run2_Fusion_Es_3kT_Ens_05kT.colvars.traj".
colvars: Saving collective variables state to "rest.colvars.state".
colvars: Synchronizing (emptying the buffer of) trajectory file "Run2_Fusion_Es_3kT_Ens_05kT.colvars.traj".
colvars: Saving collective variables state to "rest.colvars.state".
colvars: Synchronizing (emptying the buffer of) trajectory file "Run2_Fusion_Es_3kT_Ens_05kT.colvars.traj".
colvars: Saving collective variables state to "rest.colvars.state".
colvars: Synchronizing (emptying the buffer of) trajectory file "Run2_Fusion_Es_3kT_Ens_05kT.colvars.traj".
colvars: Saving collective variables state to "rest.colvars.state".
colvars: Synchronizing (emptying the buffer of) trajectory file "Run2_Fusion_Es_3kT_Ens_05kT.colvars.traj".
colvars: Saving collective variables state to "rest.colvars.state".
colvars: Synchronizing (emptying the buffer of) trajectory file "Run2_Fusion_Es_3kT_Ens_05kT.colvars.traj".
colvars: Saving collective variables state to "rest.colvars.state".
colvars: Synchronizing (emptying the buffer of) trajectory file "Run2_Fusion_Es_3kT_Ens_05kT.colvars.traj".
colvars: Saving collective variables state to "rest.colvars.state".
colvars: Synchronizing (emptying the buffer of) trajectory file "Run2_Fusion_Es_3kT_Ens_05kT.colvars.traj".
colvars: Saving collective variables state to "rest.colvars.state".
colvars: Synchronizing (emptying the buffer of) trajectory file "Run2_Fusion_Es_3kT_Ens_05kT.colvars.traj".
colvars: Saving collective variables state to "rest.colvars.state".
colvars: Synchronizing (emptying the buffer of) trajectory file "Run2_Fusion_Es_3kT_Ens_05kT.colvars.traj".
colvars: Saving collective variables state to "rest.colvars.state".
colvars: Synchronizing (emptying the buffer of) trajectory file "Run2_Fusion_Es_3kT_Ens_05kT.colvars.traj".
colvars: Saving collective variables state to "rest.colvars.state".
colvars: Synchronizing (emptying the buffer of) trajectory file "Run2_Fusion_Es_3kT_Ens_05kT.colvars.traj".
colvars: Saving collective variables state to "rest.colvars.state".
colvars: Synchronizing (emptying the buffer of) trajectory file "Run2_Fusion_Es_3kT_Ens_05kT.colvars.traj".
colvars: Saving collective variables state to "rest.colvars.state".
colvars: Synchronizing (emptying the buffer of) trajectory file "Run2_Fusion_Es_3kT_Ens_05kT.colvars.traj".
colvars: Saving collective variables state to "rest.colvars.state".
colvars: Synchronizing (emptying the buffer of) trajectory file "Run2_Fusion_Es_3kT_Ens_05kT.colvars.traj".
colvars: Saving collective variables state to "rest.colvars.state".
colvars: Synchronizing (emptying the buffer of) trajectory file "Run2_Fusion_Es_3kT_Ens_05kT.colvars.traj".
colvars: Saving collective variables state to "rest.colvars.state".
colvars: Synchronizing (emptying the buffer of) trajectory file "Run2_Fusion_Es_3kT_Ens_05kT.colvars.traj".
colvars: Saving collective variables state to "rest.colvars.state".
colvars: Synchronizing (emptying the buffer of) trajectory file "Run2_Fusion_Es_3kT_Ens_05kT.colvars.traj".
colvars: Saving collective variables state to "rest.colvars.state".
colvars: Synchronizing (emptying the buffer of) trajectory file "Run2_Fusion_Es_3kT_Ens_05kT.colvars.traj".
colvars: Saving collective variables state to "rest.colvars.state".
598000000   -7773.0187    875.62186    9215.0484    3083.8875     5564.753     309.1767    10510 
colvars: Synchronizing (emptying the buffer of) trajectory file "Run2_Fusion_Es_3kT_Ens_05kT.colvars.traj".
colvars: Saving collective variables state to "rest.colvars.state".
colvars: Synchronizing (emptying the buffer of) trajectory file "Run2_Fusion_Es_3kT_Ens_05kT.colvars.traj".
colvars: Saving collective variables state to "rest.colvars.state".
colvars: Synchronizing (emptying the buffer of) trajectory file "Run2_Fusion_Es_3kT_Ens_05kT.colvars.traj".
colvars: Saving collective variables state to "rest.colvars.state".
colvars: Synchronizing (emptying the buffer of) trajectory file "Run2_Fusion_Es_3kT_Ens_05kT.colvars.traj".
colvars: Saving collective variables state to "rest.colvars.state".
colvars: Synchronizing (emptying the buffer of) trajectory file "Run2_Fusion_Es_3kT_Ens_05kT.colvars.traj".
colvars: Saving collective variables state to "rest.colvars.state".
colvars: Synchronizing (emptying the buffer of) trajectory file "Run2_Fusion_Es_3kT_Ens_05kT.colvars.traj".
colvars: Saving collective variables state to "rest.colvars.state".
colvars: Synchronizing (emptying the buffer of) trajectory file "Run2_Fusion_Es_3kT_Ens_05kT.colvars.traj".
colvars: Saving collective variables state to "rest.colvars.state".
colvars: Synchronizing (emptying the buffer of) trajectory file "Run2_Fusion_Es_3kT_Ens_05kT.colvars.traj".
colvars: Saving collective variables state to "rest.colvars.state".
colvars: Synchronizing (emptying the buffer of) trajectory file "Run2_Fusion_Es_3kT_Ens_05kT.colvars.traj".
colvars: Saving collective variables state to "rest.colvars.state".
colvars: Synchronizing (emptying the buffer of) trajectory file "Run2_Fusion_Es_3kT_Ens_05kT.colvars.traj".
colvars: Saving collective variables state to "rest.colvars.state".
colvars: Synchronizing (emptying the buffer of) trajectory file "Run2_Fusion_Es_3kT_Ens_05kT.colvars.traj".
colvars: Saving collective variables state to "rest.colvars.state".
colvars: Synchronizing (emptying the buffer of) trajectory file "Run2_Fusion_Es_3kT_Ens_05kT.colvars.traj".
colvars: Saving collective variables state to "rest.colvars.state".
colvars: Synchronizing (emptying the buffer of) trajectory file "Run2_Fusion_Es_3kT_Ens_05kT.colvars.traj".
colvars: Saving collective variables state to "rest.colvars.state".
colvars: Synchronizing (emptying the buffer of) trajectory file "Run2_Fusion_Es_3kT_Ens_05kT.colvars.traj".
colvars: Saving collective variables state to "rest.colvars.state".
colvars: Synchronizing (emptying the buffer of) trajectory file "Run2_Fusion_Es_3kT_Ens_05kT.colvars.traj".
colvars: Saving collective variables state to "rest.colvars.state".
colvars: Synchronizing (emptying the buffer of) trajectory file "Run2_Fusion_Es_3kT_Ens_05kT.colvars.traj".
colvars: Saving collective variables state to "rest.colvars.state".
colvars: Synchronizing (emptying the buffer of) trajectory file "Run2_Fusion_Es_3kT_Ens_05kT.colvars.traj".
colvars: Saving collective variables state to "rest.colvars.state".
colvars: Synchronizing (emptying the buffer of) trajectory file "Run2_Fusion_Es_3kT_Ens_05kT.colvars.traj".
colvars: Saving collective variables state to "rest.colvars.state".
colvars: Synchronizing (emptying the buffer of) trajectory file "Run2_Fusion_Es_3kT_Ens_05kT.colvars.traj".
colvars: Saving collective variables state to "rest.colvars.state".
colvars: Synchronizing (emptying the buffer of) trajectory file "Run2_Fusion_Es_3kT_Ens_05kT.colvars.traj".
colvars: Saving collective variables state to "rest.colvars.state".
599000000   -8050.7409    756.97588    9224.5727    3119.0849    5688.6319    309.49625    10518 
colvars: Synchronizing (emptying the buffer of) trajectory file "Run2_Fusion_Es_3kT_Ens_05kT.colvars.traj".
colvars: Saving collective variables state to "rest.colvars.state".
colvars: Synchronizing (emptying the buffer of) trajectory file "Run2_Fusion_Es_3kT_Ens_05kT.colvars.traj".
colvars: Saving collective variables state to "rest.colvars.state".
colvars: Synchronizing (emptying the buffer of) trajectory file "Run2_Fusion_Es_3kT_Ens_05kT.colvars.traj".
colvars: Saving collective variables state to "rest.colvars.state".
colvars: Synchronizing (emptying the buffer of) trajectory file "Run2_Fusion_Es_3kT_Ens_05kT.colvars.traj".
colvars: Saving collective variables state to "rest.colvars.state".
colvars: Synchronizing (emptying the buffer of) trajectory file "Run2_Fusion_Es_3kT_Ens_05kT.colvars.traj".
colvars: Saving collective variables state to "rest.colvars.state".
colvars: Synchronizing (emptying the buffer of) trajectory file "Run2_Fusion_Es_3kT_Ens_05kT.colvars.traj".
colvars: Saving collective variables state to "rest.colvars.state".
colvars: Synchronizing (emptying the buffer of) trajectory file "Run2_Fusion_Es_3kT_Ens_05kT.colvars.traj".
colvars: Saving collective variables state to "rest.colvars.state".
colvars: Synchronizing (emptying the buffer of) trajectory file "Run2_Fusion_Es_3kT_Ens_05kT.colvars.traj".
colvars: Saving collective variables state to "rest.colvars.state".
colvars: Synchronizing (emptying the buffer of) trajectory file "Run2_Fusion_Es_3kT_Ens_05kT.colvars.traj".
colvars: Saving collective variables state to "rest.colvars.state".
colvars: Synchronizing (emptying the buffer of) trajectory file "Run2_Fusion_Es_3kT_Ens_05kT.colvars.traj".
colvars: Saving collective variables state to "rest.colvars.state".
colvars: Synchronizing (emptying the buffer of) trajectory file "Run2_Fusion_Es_3kT_Ens_05kT.colvars.traj".
colvars: Saving collective variables state to "rest.colvars.state".
colvars: Synchronizing (emptying the buffer of) trajectory file "Run2_Fusion_Es_3kT_Ens_05kT.colvars.traj".
colvars: Saving collective variables state to "rest.colvars.state".
colvars: Synchronizing (emptying the buffer of) trajectory file "Run2_Fusion_Es_3kT_Ens_05kT.colvars.traj".
colvars: Saving collective variables state to "rest.colvars.state".
colvars: Synchronizing (emptying the buffer of) trajectory file "Run2_Fusion_Es_3kT_Ens_05kT.colvars.traj".
colvars: Saving collective variables state to "rest.colvars.state".
colvars: Synchronizing (emptying the buffer of) trajectory file "Run2_Fusion_Es_3kT_Ens_05kT.colvars.traj".
colvars: Saving collective variables state to "rest.colvars.state".
colvars: Synchronizing (emptying the buffer of) trajectory file "Run2_Fusion_Es_3kT_Ens_05kT.colvars.traj".
colvars: Saving collective variables state to "rest.colvars.state".
colvars: Synchronizing (emptying the buffer of) trajectory file "Run2_Fusion_Es_3kT_Ens_05kT.colvars.traj".
colvars: Saving collective variables state to "rest.colvars.state".
colvars: Synchronizing (emptying the buffer of) trajectory file "Run2_Fusion_Es_3kT_Ens_05kT.colvars.traj".
colvars: Saving collective variables state to "rest.colvars.state".
colvars: Synchronizing (emptying the buffer of) trajectory file "Run2_Fusion_Es_3kT_Ens_05kT.colvars.traj".
colvars: Saving collective variables state to "rest.colvars.state".
colvars: Synchronizing (emptying the buffer of) trajectory file "Run2_Fusion_Es_3kT_Ens_05kT.colvars.traj".
colvars: Saving collective variables state to "rest.colvars.state".
600000000   -7996.9058    794.96771    9281.2315    3099.3079    5692.5656    311.39722    10512 
colvars: Saving collective variables state to "Run2_Fusion_Es_3kT_Ens_05kT.colvars.state".
Loop time of 251283 on 16 procs for 600000000 steps with 10000 atoms

Performance: 5157.538 ns/day, 0.005 hours/ns, 2387.749 timesteps/s
99.7% CPU use with 16 MPI tasks x no OpenMP threads

MPI task timing breakdown:
Section |  min time  |  avg time  |  max time  |%varavg| %total
---------------------------------------------------------------
Pair    | 70958      | 82003      | 88387      |1643.5 | 32.63
Bond    | 11916      | 12179      | 12807      | 243.3 |  4.85
Neigh   | 31558      | 31959      | 32260      | 120.9 | 12.72
Comm    | 36299      | 45664      | 61974      |3208.6 | 18.17
Output  | 3.7555     | 3.756      | 3.7589     |   0.0 |  0.00
Modify  | 63814      | 69549      | 75142      |1139.8 | 27.68
Other   |            | 9926       |            |       |  3.95

Nlocal:    625 ave 657 max 591 min
Histogram: 1 0 3 3 2 0 4 0 1 2
Nghost:    971.938 ave 1214 max 729 min
Histogram: 2 0 6 0 0 0 0 3 2 3
Neighs:    13183.2 ave 15563 max 11075 min
Histogram: 2 1 2 1 2 2 4 0 1 1

Total # of neighbors = 210931
Ave neighs/atom = 21.0931
Ave special neighs/atom = 7.3342
Neighbor list builds = 35214600
Dangerous builds = 0
write_restart final_state_${fName}.restart
write_restart final_state_Run2_Fusion_Es_3kT_Ens_05kT.restart
colvars: Resetting the Collective Variables module.

Please see the log.cite file for references relevant to this simulation

Total wall time: 69:48:04
