
read_data twoCluster_Es_3kT_Ens_05kT.DATA extra/special/per/atom 10
  orthogonal box = (-304 -286 -252) to (298 316 450)
  2 by 2 by 4 MPI processor grid
  reading atoms ...
  10000 atoms
  scanning bonds ...
  12 = max bonds/atom
  scanning angles ...
  1 = max angles/atom
  reading bonds ...
  10502 bonds
  reading angles ...
  9200 angles
  3 = max # of 1-2 neighbors
  4 = max # of 1-3 neighbors
  8 = max # of 1-4 neighbors
  21 = max # of special neighbors
  special bonds CPU = 0.00113503 secs
  read_data CPU = 0.0389324 secs

neighbor 1.9 bin
neigh_modify every 1 delay 1 check yes

angle_style  cosine
angle_coeff   *  2  # K (energy unit)

bond_style      harmonic
# bond-type, K (energy/distance^2), R0 (distance)
bond_coeff   1   3   10
bond_coeff   2   3   10
bond_coeff   3   1.8   11.22

pair_style lj/cut 25
# atom-typ1, atom-typ2, energy-well, sigma (bead-diameter), cut-off (distance)
pair_coeff  * * 0.3 10 25

special_bonds lj  1 1 1 angle no
  3 = max # of 1-2 neighbors
  4 = max # of 1-3 neighbors
  8 = max # of 1-4 neighbors
  21 = max # of special neighbors
  special bonds CPU = 0.00077074 secs
minimize 1.0e-4 1.0e-6 100000 100000 # force_tol, energy_tol, maxiter, maxeval
WARNING: Using 'neigh_modify every 1 delay 0 check yes' setting during minimization (../min.cpp:168)
Neighbor list info ...
  update every 1 steps, delay 0 steps, check yes
  max neighbors/atom: 2000, page size: 100000
  master list distance cutoff = 26.9
  ghost atom cutoff = 26.9
  binsize = 13.45, bins = 45 45 53
  1 neighbor lists, perpetual/occasional/extra = 1 0 0
  (1) pair lj/cut, perpetual
      attributes: half, newton on
      pair build: half/bin/newton
      stencil: half/bin/3d/newton
      bin: standard
Per MPI rank memory allocation (min/avg/max) = 9.917 | 10.1 | 10.56 Mbytes
Step Temp E_pair E_mol TotEng Press 
       0            0   -7616.8962    8835.2726    1218.3764   -1.2884819 
     642            0   -12408.493    3598.8133   -8809.6794  -0.74698059 
Loop time of 0.626124 on 16 procs for 642 steps with 10000 atoms

99.5% CPU use with 16 MPI tasks x no OpenMP threads

Minimization stats:
  Stopping criterion = energy tolerance
  Energy initial, next-to-last, final = 
         1218.37640346     -8808.82640153     -8809.67938131
  Force two-norm initial, final = 307.581 3.61234
  Force max component initial, final = 10.2442 0.472665
  Final line search alpha, max atom move = 0.428559 0.202565
  Iterations, force evaluations = 642 880

MPI task timing breakdown:
Section |  min time  |  avg time  |  max time  |%varavg| %total
---------------------------------------------------------------
Pair    | 0.075395   | 0.22129    | 0.42323    |  20.1 | 35.34
Bond    | 0.01034    | 0.021729   | 0.038977   |   5.8 |  3.47
Neigh   | 0.084598   | 0.088329   | 0.092004   |   1.1 | 14.11
Comm    | 0.044024   | 0.2396     | 0.41243    |  19.5 | 38.27
Output  | 0          | 0          | 0          |   0.0 |  0.00
Modify  | 0          | 0          | 0          |   0.0 |  0.00
Other   |            | 0.05517    |            |       |  8.81

Nlocal:    625 ave 1123 max 264 min
Histogram: 4 1 1 0 4 1 3 0 0 2
Nghost:    770 ave 939 max 608 min
Histogram: 2 2 3 0 0 1 2 3 1 2
Neighs:    14577.4 ave 27651 max 4635 min
Histogram: 3 1 2 1 2 3 2 0 1 1

Total # of neighbors = 233238
Ave neighs/atom = 23.3238
Ave special neighs/atom = 7.3188
Neighbor list builds = 54
Dangerous builds = 0

fix fxlan all langevin $T $T 500 ${seed}
fix fxlan all langevin 310 $T 500 ${seed}
fix fxlan all langevin 310 310 500 ${seed}
fix fxlan all langevin 310 310 500 28258
fix fxnve all nve
timestep 0.1
run 1000
Per MPI rank memory allocation (min/avg/max) = 8.793 | 8.979 | 9.44 Mbytes
Step Temp E_pair E_mol TotEng Press 
     642            0   -12408.493    3598.8133   -8809.6794  -0.74698059 
    1642    103.59051   -12403.372    3617.1937   -5698.6506  -0.18717315 
Loop time of 0.432767 on 16 procs for 1000 steps with 10000 atoms

Performance: 19.965 ns/day, 1.202 hours/ns, 2310.711 timesteps/s
99.7% CPU use with 16 MPI tasks x no OpenMP threads

MPI task timing breakdown:
Section |  min time  |  avg time  |  max time  |%varavg| %total
---------------------------------------------------------------
Pair    | 0.046225   | 0.15224    | 0.2967     |  17.4 | 35.18
Bond    | 0.0088825  | 0.019956   | 0.036      |   5.7 |  4.61
Neigh   | 0          | 0          | 0          |   0.0 |  0.00
Comm    | 0.038648   | 0.18372    | 0.31266    |  16.2 | 42.45
Output  | 2.7155e-05 | 8.2317e-05 | 0.00019301 |   0.0 |  0.02
Modify  | 0.012948   | 0.02946    | 0.054045   |   7.0 |  6.81
Other   |            | 0.04731    |            |       | 10.93

Nlocal:    625 ave 1123 max 264 min
Histogram: 4 1 1 0 4 1 3 0 0 2
Nghost:    770.875 ave 942 max 608 min
Histogram: 2 2 3 0 1 0 2 3 1 2
Neighs:    14600.4 ave 27694 max 4622 min
Histogram: 3 1 2 1 2 3 2 0 1 1

Total # of neighbors = 233606
Ave neighs/atom = 23.3606
Ave special neighs/atom = 7.3188
Neighbor list builds = 0
Dangerous builds = 0

unfix fxlan
unfix fxnve
reset_timestep 0

variable t equal step
variable steps equal 600000000
variable dt_restart equal 20000000
variable dt_thermo equal 1000000
variable dt_movie equal 1000000

group rxnSites type 1 3
2000 atoms in group rxnSites

fix fxcv all colvars TCC_N400_ID_300A.colvars output ${fName}
fix fxcv all colvars TCC_N400_ID_300A.colvars output Run4_Fusion_Es_3kT_Ens_05kT

# fix ID group-ID(atom-types) bond/create Nevery itype jtype Rmin bondtype (prob values = fraction seed) (iparam maxbond newType)
fix bondc rxnSites bond/create/random 20 1 3 12.72 3 prob 1 ${seed} iparam 1 1 jparam 1 3
fix bondc rxnSites bond/create/random 20 1 3 12.72 3 prob 1 28258 iparam 1 1 jparam 1 3

# fix ID group-ID bond/break Nevery bondtype Rmax keyword values ...
fix bondbr rxnSites bond/break 20 3 12.72 prob 1 ${seed}
fix bondbr rxnSites bond/break 20 3 12.72 prob 1 28258

variable frmbnd equal f_bondc[2]
variable brkbnd equal f_bondbr[2]
fix saveBond all print ${dt_thermo} "$t ${frmbnd} ${brkbnd}" file BondData_${fName}.dat screen no
fix saveBond all print 1000000 "$t ${frmbnd} ${brkbnd}" file BondData_${fName}.dat screen no
fix saveBond all print 1000000 "$t ${frmbnd} ${brkbnd}" file BondData_Run4_Fusion_Es_3kT_Ens_05kT.dat screen no

thermo_style    custom step epair pe ke ebond eangle temp bonds
thermo          ${dt_thermo}
thermo          1000000
fix saveThermo all print ${dt_thermo} "$t $(temp) $(ke) $(pe) $(epair) $(ebond) $(eangle) $(bonds)" file Thermo_${fName}.dat title "# Steps Temp KinEng PotEng Epair Ebond Eangle Bonds" screen no
fix saveThermo all print 1000000 "$t $(temp) $(ke) $(pe) $(epair) $(ebond) $(eangle) $(bonds)" file Thermo_${fName}.dat title "# Steps Temp KinEng PotEng Epair Ebond Eangle Bonds" screen no
fix saveThermo all print 1000000 "$t $(temp) $(ke) $(pe) $(epair) $(ebond) $(eangle) $(bonds)" file Thermo_Run4_Fusion_Es_3kT_Ens_05kT.dat title "# Steps Temp KinEng PotEng Epair Ebond Eangle Bonds" screen no

############################ Langevin Dynamics ###############################
fix fxlan all langevin $T $T 500 ${seed}
fix fxlan all langevin 310 $T 500 ${seed}
fix fxlan all langevin 310 310 500 ${seed}
fix fxlan all langevin 310 310 500 28258
fix fxnve all nve

comm_style tiled
fix fxbal all balance 1000 1.1 rcb # load balance for spatially heterogeneous system

timestep 25

dump coor all custom ${dt_movie} traj_${fName}.dump id type mol mass x y z xu yu zu
dump coor all custom 1000000 traj_${fName}.dump id type mol mass x y z xu yu zu
dump coor all custom 1000000 traj_Run4_Fusion_Es_3kT_Ens_05kT.dump id type mol mass x y z xu yu zu

#restart ${dt_restart} ${fName}_tp_*.restart
run ${steps}
run 600000000
Neighbor list info ...
  update every 1 steps, delay 1 steps, check yes
  max neighbors/atom: 2000, page size: 100000
  master list distance cutoff = 26.9
  ghost atom cutoff = 26.9
  binsize = 13.45, bins = 45 45 53
  2 neighbor lists, perpetual/occasional/extra = 1 1 0
  (1) pair lj/cut, perpetual
      attributes: half, newton on
      pair build: half/bin/newton
      stencil: half/bin/3d/newton
      bin: standard
  (2) fix bond/create/random, occasional, copy from (1)
      attributes: half, newton on
      pair build: copy
      stencil: none
      bin: none
colvars: Creating proxy instance
colvars: ----------------------------------------------------------------------
colvars: Initializing the collective variables module, version "2019-04-26".
colvars: Please cite Fiorin et al, Mol Phys 2013:
colvars:  http://dx.doi.org/10.1080/00268976.2013.813594
colvars: in any publication based on this calculation.
colvars: Using LAMMPS interface, version "2019-04-09".
colvars: ----------------------------------------------------------------------
colvars: Reading new configuration from file "TCC_N400_ID_300A.colvars":
colvars: # smp = on [default]
colvars: # colvarsTrajFrequency = 50000
colvars: # colvarsRestartFrequency = 50000
colvars: # scriptedColvarForces = off [default]
colvars: # scriptingAfterBiases = off [default]
colvars: ----------------------------------------------------------------------
colvars:   Initializing a new collective variable.
colvars:   # name = "dist"
colvars:   Initializing a new "distance" component.
colvars:     # name = "" [default]
colvars:     # componentCoeff = 1 [default]
colvars:     # componentExp = 1 [default]
colvars:     # period = 0 [default]
colvars:     # wrapAround = 0 [default]
colvars:     # forceNoPBC = off [default]
colvars:     # scalable = on [default]
colvars:       Initializing atom group "group1".
colvars:       # name = "" [default]
colvars:       # centerReference = off [default]
colvars:       # rotateReference = off [default]
colvars:       # atomsOfGroup = "" [default]
colvars:       # indexGroup = "" [default]
colvars:       # psfSegID =  [default]
colvars:       # atomsFile = "" [default]
colvars:       # dummyAtom = ( 0 , 0 , 0 ) [default]
colvars:       # enableForces = on [default]
colvars:       # enableFitGradients = on [default]
colvars:       # printAtomIDs = off [default]
colvars:       Atom group "group1" defined with 200 atoms requested.
colvars:       Initializing atom group "group2".
colvars:       # name = "" [default]
colvars:       # centerReference = off [default]
colvars:       # rotateReference = off [default]
colvars:       # atomsOfGroup = "" [default]
colvars:       # indexGroup = "" [default]
colvars:       # psfSegID =  [default]
colvars:       # atomsFile = "" [default]
colvars:       # dummyAtom = ( 0 , 0 , 0 ) [default]
colvars:       # enableForces = on [default]
colvars:       # enableFitGradients = on [default]
colvars:       # printAtomIDs = off [default]
colvars:       Atom group "group2" defined with 200 atoms requested.
colvars:     # oneSiteSystemForce = off [default]
colvars:     # oneSiteTotalForce = off [default]
colvars:   All components initialized.
colvars:   # timeStepFactor = 1 [default]
colvars:   # width = 1 [default]
colvars:   # lowerBoundary = 0
colvars:   # upperBoundary = 310
colvars:   # hardLowerBoundary = off [default]
colvars:   # hardUpperBoundary = off [default]
colvars:   # expandBoundaries = off [default]
colvars:   # extendedLagrangian = off [default]
colvars:   # outputValue = on [default]
colvars:   # outputVelocity = off [default]
colvars:   # outputTotalForce = off [default]
colvars:   # outputAppliedForce = off [default]
colvars:   # subtractAppliedForce = off [default]
colvars:   # runAve = off [default]
colvars:   # corrFunc = off [default]
colvars: ----------------------------------------------------------------------
colvars: Collective variables initialized, 1 in total.
colvars: ----------------------------------------------------------------------
colvars:   Initializing a new "harmonicwalls" instance.
colvars:   # name = "wall_dist"
colvars:   # colvars = { dist }
colvars:   # outputEnergy = off [default]
colvars:   # timeStepFactor = 1 [default]
colvars:   # writeTISamples = off [default]
colvars:   # writeTIPMF = off [default]
colvars:   # forceConstant = 1 [default]
colvars:   # targetForceConstant = -1 [default]
colvars:   # lowerWalls = { 0 } [default]
colvars:   Lower walls were not provided.
colvars:   # upperWalls = { 305 }
colvars:   # upperWallConstant = 20
colvars:   The upper wall force constant for colvar "dist" will be rescaled to 20 according to the specified width (1).
colvars: ----------------------------------------------------------------------
colvars:   Initializing a new "metadynamics" instance.
colvars:   # name = "Mtd_dist"
colvars:   # colvars = { dist }
colvars:   # outputEnergy = off [default]
colvars:   # timeStepFactor = 1 [default]
colvars:   # writeTISamples = off [default]
colvars:   # writeTIPMF = off [default]
colvars:   # hillWeight = 0.2
colvars:   # newHillFrequency = 500
colvars:   # hillWidth = 1
colvars:   Half-widths of the Gaussian hills (sigma's):
colvars:   dist: 0.5
colvars:   # multipleReplicas = off [default]
colvars:   # useGrids = on [default]
colvars:   # gridsUpdateFrequency = 500 [default]
colvars:   # rebinGrids = off [default]
colvars:   # keepHills = off [default]
colvars:   # writeFreeEnergyFile = on [default]
colvars:   # keepFreeEnergyFiles = off [default]
colvars:   # writeHillsTrajectory = on
colvars:   # wellTempered = on
colvars:   # biasTemperature = 310
colvars:   Well-tempered metadynamics is used.
colvars:   The bias temperature is 310.
colvars:   # ebMeta = off [default]
colvars: ----------------------------------------------------------------------
colvars: Collective variables biases initialized, 2 in total.
colvars: ----------------------------------------------------------------------
colvars: Collective variables module (re)initialized.
colvars: ----------------------------------------------------------------------
colvars: The restart output state file will be "rest.colvars.state".
colvars: The final output state file will be "Run4_Fusion_Es_3kT_Ens_05kT.colvars.state".
colvars: Writing to colvar trajectory file "Run4_Fusion_Es_3kT_Ens_05kT.colvars.traj".
colvars: Re-initialized atom group for variable "dist":0/0. 200 atoms: total mass = 200000, total charge = 0.
colvars: Re-initialized atom group for variable "dist":0/1. 200 atoms: total mass = 200000, total charge = 0.
Per MPI rank memory allocation (min/avg/max) = 10.95 | 11.34 | 11.91 Mbytes
Step E_pair PotEng KinEng E_bond E_angle Temp Bonds 
       0   -12403.372   -8786.1782    3087.5276    239.95291    3377.2408    103.59051    10502 
colvars: Synchronizing (emptying the buffer of) trajectory file "Run4_Fusion_Es_3kT_Ens_05kT.colvars.traj".
colvars: Saving collective variables state to "rest.colvars.state".
colvars: Synchronizing (emptying the buffer of) trajectory file "Run4_Fusion_Es_3kT_Ens_05kT.colvars.traj".
colvars: Saving collective variables state to "rest.colvars.state".
colvars: Synchronizing (emptying the buffer of) trajectory file "Run4_Fusion_Es_3kT_Ens_05kT.colvars.traj".
colvars: Saving collective variables state to "rest.colvars.state".
colvars: Synchronizing (emptying the buffer of) trajectory file "Run4_Fusion_Es_3kT_Ens_05kT.colvars.traj".
colvars: Saving collective variables state to "rest.colvars.state".
colvars: Synchronizing (emptying the buffer of) trajectory file "Run4_Fusion_Es_3kT_Ens_05kT.colvars.traj".
colvars: Saving collective variables state to "rest.colvars.state".
colvars: Synchronizing (emptying the buffer of) trajectory file "Run4_Fusion_Es_3kT_Ens_05kT.colvars.traj".
colvars: Saving collective variables state to "rest.colvars.state".
colvars: Synchronizing (emptying the buffer of) trajectory file "Run4_Fusion_Es_3kT_Ens_05kT.colvars.traj".
colvars: Saving collective variables state to "rest.colvars.state".
colvars: Synchronizing (emptying the buffer of) trajectory file "Run4_Fusion_Es_3kT_Ens_05kT.colvars.traj".
colvars: Saving collective variables state to "rest.colvars.state".
colvars: Synchronizing (emptying the buffer of) trajectory file "Run4_Fusion_Es_3kT_Ens_05kT.colvars.traj".
colvars: Saving collective variables state to "rest.colvars.state".
colvars: Synchronizing (emptying the buffer of) trajectory file "Run4_Fusion_Es_3kT_Ens_05kT.colvars.traj".
colvars: Saving collective variables state to "rest.colvars.state".
colvars: Synchronizing (emptying the buffer of) trajectory file "Run4_Fusion_Es_3kT_Ens_05kT.colvars.traj".
colvars: Saving collective variables state to "rest.colvars.state".
colvars: Synchronizing (emptying the buffer of) trajectory file "Run4_Fusion_Es_3kT_Ens_05kT.colvars.traj".
colvars: Saving collective variables state to "rest.colvars.state".
colvars: Synchronizing (emptying the buffer of) trajectory file "Run4_Fusion_Es_3kT_Ens_05kT.colvars.traj".
colvars: Saving collective variables state to "rest.colvars.state".
colvars: Synchronizing (emptying the buffer of) trajectory file "Run4_Fusion_Es_3kT_Ens_05kT.colvars.traj".
colvars: Saving collective variables state to "rest.colvars.state".
colvars: Synchronizing (emptying the buffer of) trajectory file "Run4_Fusion_Es_3kT_Ens_05kT.colvars.traj".
colvars: Saving collective variables state to "rest.colvars.state".
colvars: Synchronizing (emptying the buffer of) trajectory file "Run4_Fusion_Es_3kT_Ens_05kT.colvars.traj".
colvars: Saving collective variables state to "rest.colvars.state".
colvars: Synchronizing (emptying the buffer of) trajectory file "Run4_Fusion_Es_3kT_Ens_05kT.colvars.traj".
colvars: Saving collective variables state to "rest.colvars.state".
colvars: Synchronizing (emptying the buffer of) trajectory file "Run4_Fusion_Es_3kT_Ens_05kT.colvars.traj".
colvars: Saving collective variables state to "rest.colvars.state".
colvars: Synchronizing (emptying the buffer of) trajectory file "Run4_Fusion_Es_3kT_Ens_05kT.colvars.traj".
colvars: Saving collective variables state to "rest.colvars.state".
colvars: Synchronizing (emptying the buffer of) trajectory file "Run4_Fusion_Es_3kT_Ens_05kT.colvars.traj".
colvars: Saving collective variables state to "rest.colvars.state".
 1000000   -7556.6108    1292.7333    9227.6909    3079.7592    5769.5849    309.60087    10512 
colvars: Synchronizing (emptying the buffer of) trajectory file "Run4_Fusion_Es_3kT_Ens_05kT.colvars.traj".
colvars: Saving collective variables state to "rest.colvars.state".
colvars: Synchronizing (emptying the buffer of) trajectory file "Run4_Fusion_Es_3kT_Ens_05kT.colvars.traj".
colvars: Saving collective variables state to "rest.colvars.state".
colvars: Synchronizing (emptying the buffer of) trajectory file "Run4_Fusion_Es_3kT_Ens_05kT.colvars.traj".
colvars: Saving collective variables state to "rest.colvars.state".
colvars: Synchronizing (emptying the buffer of) trajectory file "Run4_Fusion_Es_3kT_Ens_05kT.colvars.traj".
colvars: Saving collective variables state to "rest.colvars.state".
colvars: Synchronizing (emptying the buffer of) trajectory file "Run4_Fusion_Es_3kT_Ens_05kT.colvars.traj".
colvars: Saving collective variables state to "rest.colvars.state".
colvars: Synchronizing (emptying the buffer of) trajectory file "Run4_Fusion_Es_3kT_Ens_05kT.colvars.traj".
colvars: Saving collective variables state to "rest.colvars.state".
colvars: Synchronizing (emptying the buffer of) trajectory file "Run4_Fusion_Es_3kT_Ens_05kT.colvars.traj".
colvars: Saving collective variables state to "rest.colvars.state".
colvars: Synchronizing (emptying the buffer of) trajectory file "Run4_Fusion_Es_3kT_Ens_05kT.colvars.traj".
colvars: Saving collective variables state to "rest.colvars.state".
colvars: Synchronizing (emptying the buffer of) trajectory file "Run4_Fusion_Es_3kT_Ens_05kT.colvars.traj".
colvars: Saving collective variables state to "rest.colvars.state".
colvars: Synchronizing (emptying the buffer of) trajectory file "Run4_Fusion_Es_3kT_Ens_05kT.colvars.traj".
colvars: Saving collective variables state to "rest.colvars.state".
colvars: Synchronizing (emptying the buffer of) trajectory file "Run4_Fusion_Es_3kT_Ens_05kT.colvars.traj".
colvars: Saving collective variables state to "rest.colvars.state".
colvars: Synchronizing (emptying the buffer of) trajectory file "Run4_Fusion_Es_3kT_Ens_05kT.colvars.traj".
colvars: Saving collective variables state to "rest.colvars.state".
colvars: Synchronizing (emptying the buffer of) trajectory file "Run4_Fusion_Es_3kT_Ens_05kT.colvars.traj".
colvars: Saving collective variables state to "rest.colvars.state".
colvars: Synchronizing (emptying the buffer of) trajectory file "Run4_Fusion_Es_3kT_Ens_05kT.colvars.traj".
colvars: Saving collective variables state to "rest.colvars.state".
colvars: Synchronizing (emptying the buffer of) trajectory file "Run4_Fusion_Es_3kT_Ens_05kT.colvars.traj".
colvars: Saving collective variables state to "rest.colvars.state".
colvars: Synchronizing (emptying the buffer of) trajectory file "Run4_Fusion_Es_3kT_Ens_05kT.colvars.traj".
colvars: Saving collective variables state to "rest.colvars.state".
colvars: Synchronizing (emptying the buffer of) trajectory file "Run4_Fusion_Es_3kT_Ens_05kT.colvars.traj".
colvars: Saving collective variables state to "rest.colvars.state".
colvars: Synchronizing (emptying the buffer of) trajectory file "Run4_Fusion_Es_3kT_Ens_05kT.colvars.traj".
colvars: Saving collective variables state to "rest.colvars.state".
colvars: Synchronizing (emptying the buffer of) trajectory file "Run4_Fusion_Es_3kT_Ens_05kT.colvars.traj".
colvars: Saving collective variables state to "rest.colvars.state".
colvars: Synchronizing (emptying the buffer of) trajectory file "Run4_Fusion_Es_3kT_Ens_05kT.colvars.traj".
colvars: Saving collective variables state to "rest.colvars.state".
 2000000   -7579.0248     1245.116     9342.961    3079.1998    5744.9409    313.46833    10519 
colvars: Synchronizing (emptying the buffer of) trajectory file "Run4_Fusion_Es_3kT_Ens_05kT.colvars.traj".
colvars: Saving collective variables state to "rest.colvars.state".
colvars: Synchronizing (emptying the buffer of) trajectory file "Run4_Fusion_Es_3kT_Ens_05kT.colvars.traj".
colvars: Saving collective variables state to "rest.colvars.state".
colvars: Synchronizing (emptying the buffer of) trajectory file "Run4_Fusion_Es_3kT_Ens_05kT.colvars.traj".
colvars: Saving collective variables state to "rest.colvars.state".
colvars: Synchronizing (emptying the buffer of) trajectory file "Run4_Fusion_Es_3kT_Ens_05kT.colvars.traj".
colvars: Saving collective variables state to "rest.colvars.state".
colvars: Synchronizing (emptying the buffer of) trajectory file "Run4_Fusion_Es_3kT_Ens_05kT.colvars.traj".
colvars: Saving collective variables state to "rest.colvars.state".
colvars: Synchronizing (emptying the buffer of) trajectory file "Run4_Fusion_Es_3kT_Ens_05kT.colvars.traj".
colvars: Saving collective variables state to "rest.colvars.state".
colvars: Synchronizing (emptying the buffer of) trajectory file "Run4_Fusion_Es_3kT_Ens_05kT.colvars.traj".
colvars: Saving collective variables state to "rest.colvars.state".
colvars: Synchronizing (emptying the buffer of) trajectory file "Run4_Fusion_Es_3kT_Ens_05kT.colvars.traj".
colvars: Saving collective variables state to "rest.colvars.state".
colvars: Synchronizing (emptying the buffer of) trajectory file "Run4_Fusion_Es_3kT_Ens_05kT.colvars.traj".
colvars: Saving collective variables state to "rest.colvars.state".
colvars: Synchronizing (emptying the buffer of) trajectory file "Run4_Fusion_Es_3kT_Ens_05kT.colvars.traj".
colvars: Saving collective variables state to "rest.colvars.state".
colvars: Synchronizing (emptying the buffer of) trajectory file "Run4_Fusion_Es_3kT_Ens_05kT.colvars.traj".
colvars: Saving collective variables state to "rest.colvars.state".
colvars: Synchronizing (emptying the buffer of) trajectory file "Run4_Fusion_Es_3kT_Ens_05kT.colvars.traj".
colvars: Saving collective variables state to "rest.colvars.state".
colvars: Synchronizing (emptying the buffer of) trajectory file "Run4_Fusion_Es_3kT_Ens_05kT.colvars.traj".
colvars: Saving collective variables state to "rest.colvars.state".
colvars: Synchronizing (emptying the buffer of) trajectory file "Run4_Fusion_Es_3kT_Ens_05kT.colvars.traj".
colvars: Saving collective variables state to "rest.colvars.state".
colvars: Synchronizing (emptying the buffer of) trajectory file "Run4_Fusion_Es_3kT_Ens_05kT.colvars.traj".
colvars: Saving collective variables state to "rest.colvars.state".
colvars: Synchronizing (emptying the buffer of) trajectory file "Run4_Fusion_Es_3kT_Ens_05kT.colvars.traj".
colvars: Saving collective variables state to "rest.colvars.state".
colvars: Synchronizing (emptying the buffer of) trajectory file "Run4_Fusion_Es_3kT_Ens_05kT.colvars.traj".
colvars: Saving collective variables state to "rest.colvars.state".
colvars: Synchronizing (emptying the buffer of) trajectory file "Run4_Fusion_Es_3kT_Ens_05kT.colvars.traj".
colvars: Saving collective variables state to "rest.colvars.state".
colvars: Synchronizing (emptying the buffer of) trajectory file "Run4_Fusion_Es_3kT_Ens_05kT.colvars.traj".
colvars: Saving collective variables state to "rest.colvars.state".
colvars: Synchronizing (emptying the buffer of) trajectory file "Run4_Fusion_Es_3kT_Ens_05kT.colvars.traj".
colvars: Saving collective variables state to "rest.colvars.state".
 3000000   -7501.8359    1278.1005    9209.1119    3052.3556    5727.5807    308.97752    10512 
colvars: Synchronizing (emptying the buffer of) trajectory file "Run4_Fusion_Es_3kT_Ens_05kT.colvars.traj".
colvars: Saving collective variables state to "rest.colvars.state".
colvars: Synchronizing (emptying the buffer of) trajectory file "Run4_Fusion_Es_3kT_Ens_05kT.colvars.traj".
colvars: Saving collective variables state to "rest.colvars.state".
colvars: Synchronizing (emptying the buffer of) trajectory file "Run4_Fusion_Es_3kT_Ens_05kT.colvars.traj".
colvars: Saving collective variables state to "rest.colvars.state".
colvars: Synchronizing (emptying the buffer of) trajectory file "Run4_Fusion_Es_3kT_Ens_05kT.colvars.traj".
colvars: Saving collective variables state to "rest.colvars.state".
colvars: Synchronizing (emptying the buffer of) trajectory file "Run4_Fusion_Es_3kT_Ens_05kT.colvars.traj".
colvars: Saving collective variables state to "rest.colvars.state".
colvars: Synchronizing (emptying the buffer of) trajectory file "Run4_Fusion_Es_3kT_Ens_05kT.colvars.traj".
colvars: Saving collective variables state to "rest.colvars.state".
colvars: Synchronizing (emptying the buffer of) trajectory file "Run4_Fusion_Es_3kT_Ens_05kT.colvars.traj".
colvars: Saving collective variables state to "rest.colvars.state".
colvars: Synchronizing (emptying the buffer of) trajectory file "Run4_Fusion_Es_3kT_Ens_05kT.colvars.traj".
colvars: Saving collective variables state to "rest.colvars.state".
colvars: Synchronizing (emptying the buffer of) trajectory file "Run4_Fusion_Es_3kT_Ens_05kT.colvars.traj".
colvars: Saving collective variables state to "rest.colvars.state".
colvars: Synchronizing (emptying the buffer of) trajectory file "Run4_Fusion_Es_3kT_Ens_05kT.colvars.traj".
colvars: Saving collective variables state to "rest.colvars.state".
colvars: Synchronizing (emptying the buffer of) trajectory file "Run4_Fusion_Es_3kT_Ens_05kT.colvars.traj".
colvars: Saving collective variables state to "rest.colvars.state".
colvars: Synchronizing (emptying the buffer of) trajectory file "Run4_Fusion_Es_3kT_Ens_05kT.colvars.traj".
colvars: Saving collective variables state to "rest.colvars.state".
colvars: Synchronizing (emptying the buffer of) trajectory file "Run4_Fusion_Es_3kT_Ens_05kT.colvars.traj".
colvars: Saving collective variables state to "rest.colvars.state".
colvars: Synchronizing (emptying the buffer of) trajectory file "Run4_Fusion_Es_3kT_Ens_05kT.colvars.traj".
colvars: Saving collective variables state to "rest.colvars.state".
colvars: Synchronizing (emptying the buffer of) trajectory file "Run4_Fusion_Es_3kT_Ens_05kT.colvars.traj".
colvars: Saving collective variables state to "rest.colvars.state".
colvars: Synchronizing (emptying the buffer of) trajectory file "Run4_Fusion_Es_3kT_Ens_05kT.colvars.traj".
colvars: Saving collective variables state to "rest.colvars.state".
colvars: Synchronizing (emptying the buffer of) trajectory file "Run4_Fusion_Es_3kT_Ens_05kT.colvars.traj".
colvars: Saving collective variables state to "rest.colvars.state".
colvars: Synchronizing (emptying the buffer of) trajectory file "Run4_Fusion_Es_3kT_Ens_05kT.colvars.traj".
colvars: Saving collective variables state to "rest.colvars.state".
colvars: Synchronizing (emptying the buffer of) trajectory file "Run4_Fusion_Es_3kT_Ens_05kT.colvars.traj".
colvars: Saving collective variables state to "rest.colvars.state".
colvars: Synchronizing (emptying the buffer of) trajectory file "Run4_Fusion_Es_3kT_Ens_05kT.colvars.traj".
colvars: Saving collective variables state to "rest.colvars.state".
 4000000   -7522.0543    1175.6354    9421.7559    3071.2309    5626.4587      316.112    10498 
colvars: Synchronizing (emptying the buffer of) trajectory file "Run4_Fusion_Es_3kT_Ens_05kT.colvars.traj".
colvars: Saving collective variables state to "rest.colvars.state".
colvars: Synchronizing (emptying the buffer of) trajectory file "Run4_Fusion_Es_3kT_Ens_05kT.colvars.traj".
colvars: Saving collective variables state to "rest.colvars.state".
colvars: Synchronizing (emptying the buffer of) trajectory file "Run4_Fusion_Es_3kT_Ens_05kT.colvars.traj".
colvars: Saving collective variables state to "rest.colvars.state".
colvars: Synchronizing (emptying the buffer of) trajectory file "Run4_Fusion_Es_3kT_Ens_05kT.colvars.traj".
colvars: Saving collective variables state to "rest.colvars.state".
colvars: Synchronizing (emptying the buffer of) trajectory file "Run4_Fusion_Es_3kT_Ens_05kT.colvars.traj".
colvars: Saving collective variables state to "rest.colvars.state".
colvars: Synchronizing (emptying the buffer of) trajectory file "Run4_Fusion_Es_3kT_Ens_05kT.colvars.traj".
colvars: Saving collective variables state to "rest.colvars.state".
colvars: Synchronizing (emptying the buffer of) trajectory file "Run4_Fusion_Es_3kT_Ens_05kT.colvars.traj".
colvars: Saving collective variables state to "rest.colvars.state".
colvars: Synchronizing (emptying the buffer of) trajectory file "Run4_Fusion_Es_3kT_Ens_05kT.colvars.traj".
colvars: Saving collective variables state to "rest.colvars.state".
colvars: Synchronizing (emptying the buffer of) trajectory file "Run4_Fusion_Es_3kT_Ens_05kT.colvars.traj".
colvars: Saving collective variables state to "rest.colvars.state".
colvars: Synchronizing (emptying the buffer of) trajectory file "Run4_Fusion_Es_3kT_Ens_05kT.colvars.traj".
colvars: Saving collective variables state to "rest.colvars.state".
colvars: Synchronizing (emptying the buffer of) trajectory file "Run4_Fusion_Es_3kT_Ens_05kT.colvars.traj".
colvars: Saving collective variables state to "rest.colvars.state".
colvars: Synchronizing (emptying the buffer of) trajectory file "Run4_Fusion_Es_3kT_Ens_05kT.colvars.traj".
colvars: Saving collective variables state to "rest.colvars.state".
colvars: Synchronizing (emptying the buffer of) trajectory file "Run4_Fusion_Es_3kT_Ens_05kT.colvars.traj".
colvars: Saving collective variables state to "rest.colvars.state".
colvars: Synchronizing (emptying the buffer of) trajectory file "Run4_Fusion_Es_3kT_Ens_05kT.colvars.traj".
colvars: Saving collective variables state to "rest.colvars.state".
colvars: Synchronizing (emptying the buffer of) trajectory file "Run4_Fusion_Es_3kT_Ens_05kT.colvars.traj".
colvars: Saving collective variables state to "rest.colvars.state".
colvars: Synchronizing (emptying the buffer of) trajectory file "Run4_Fusion_Es_3kT_Ens_05kT.colvars.traj".
colvars: Saving collective variables state to "rest.colvars.state".
colvars: Synchronizing (emptying the buffer of) trajectory file "Run4_Fusion_Es_3kT_Ens_05kT.colvars.traj".
colvars: Saving collective variables state to "rest.colvars.state".
colvars: Synchronizing (emptying the buffer of) trajectory file "Run4_Fusion_Es_3kT_Ens_05kT.colvars.traj".
colvars: Saving collective variables state to "rest.colvars.state".
colvars: Synchronizing (emptying the buffer of) trajectory file "Run4_Fusion_Es_3kT_Ens_05kT.colvars.traj".
colvars: Saving collective variables state to "rest.colvars.state".
colvars: Synchronizing (emptying the buffer of) trajectory file "Run4_Fusion_Es_3kT_Ens_05kT.colvars.traj".
colvars: Saving collective variables state to "rest.colvars.state".
 5000000    -7492.116    1275.5332    9319.1122    3031.2389    5736.4103    312.66817    10509 
colvars: Synchronizing (emptying the buffer of) trajectory file "Run4_Fusion_Es_3kT_Ens_05kT.colvars.traj".
colvars: Saving collective variables state to "rest.colvars.state".
colvars: Synchronizing (emptying the buffer of) trajectory file "Run4_Fusion_Es_3kT_Ens_05kT.colvars.traj".
colvars: Saving collective variables state to "rest.colvars.state".
colvars: Synchronizing (emptying the buffer of) trajectory file "Run4_Fusion_Es_3kT_Ens_05kT.colvars.traj".
colvars: Saving collective variables state to "rest.colvars.state".
colvars: Synchronizing (emptying the buffer of) trajectory file "Run4_Fusion_Es_3kT_Ens_05kT.colvars.traj".
colvars: Saving collective variables state to "rest.colvars.state".
colvars: Synchronizing (emptying the buffer of) trajectory file "Run4_Fusion_Es_3kT_Ens_05kT.colvars.traj".
colvars: Saving collective variables state to "rest.colvars.state".
colvars: Synchronizing (emptying the buffer of) trajectory file "Run4_Fusion_Es_3kT_Ens_05kT.colvars.traj".
colvars: Saving collective variables state to "rest.colvars.state".
colvars: Synchronizing (emptying the buffer of) trajectory file "Run4_Fusion_Es_3kT_Ens_05kT.colvars.traj".
colvars: Saving collective variables state to "rest.colvars.state".
colvars: Synchronizing (emptying the buffer of) trajectory file "Run4_Fusion_Es_3kT_Ens_05kT.colvars.traj".
colvars: Saving collective variables state to "rest.colvars.state".
colvars: Synchronizing (emptying the buffer of) trajectory file "Run4_Fusion_Es_3kT_Ens_05kT.colvars.traj".
colvars: Saving collective variables state to "rest.colvars.state".
colvars: Synchronizing (emptying the buffer of) trajectory file "Run4_Fusion_Es_3kT_Ens_05kT.colvars.traj".
colvars: Saving collective variables state to "rest.colvars.state".
colvars: Synchronizing (emptying the buffer of) trajectory file "Run4_Fusion_Es_3kT_Ens_05kT.colvars.traj".
colvars: Saving collective variables state to "rest.colvars.state".
colvars: Synchronizing (emptying the buffer of) trajectory file "Run4_Fusion_Es_3kT_Ens_05kT.colvars.traj".
colvars: Saving collective variables state to "rest.colvars.state".
colvars: Synchronizing (emptying the buffer of) trajectory file "Run4_Fusion_Es_3kT_Ens_05kT.colvars.traj".
colvars: Saving collective variables state to "rest.colvars.state".
colvars: Synchronizing (emptying the buffer of) trajectory file "Run4_Fusion_Es_3kT_Ens_05kT.colvars.traj".
colvars: Saving collective variables state to "rest.colvars.state".
colvars: Synchronizing (emptying the buffer of) trajectory file "Run4_Fusion_Es_3kT_Ens_05kT.colvars.traj".
colvars: Saving collective variables state to "rest.colvars.state".
colvars: Synchronizing (emptying the buffer of) trajectory file "Run4_Fusion_Es_3kT_Ens_05kT.colvars.traj".
colvars: Saving collective variables state to "rest.colvars.state".
colvars: Synchronizing (emptying the buffer of) trajectory file "Run4_Fusion_Es_3kT_Ens_05kT.colvars.traj".
colvars: Saving collective variables state to "rest.colvars.state".
colvars: Synchronizing (emptying the buffer of) trajectory file "Run4_Fusion_Es_3kT_Ens_05kT.colvars.traj".
colvars: Saving collective variables state to "rest.colvars.state".
colvars: Synchronizing (emptying the buffer of) trajectory file "Run4_Fusion_Es_3kT_Ens_05kT.colvars.traj".
colvars: Saving collective variables state to "rest.colvars.state".
colvars: Synchronizing (emptying the buffer of) trajectory file "Run4_Fusion_Es_3kT_Ens_05kT.colvars.traj".
colvars: Saving collective variables state to "rest.colvars.state".
 6000000   -7535.4342    1295.0618    9203.0889    3091.9569    5738.5391    308.77544    10507 
colvars: Synchronizing (emptying the buffer of) trajectory file "Run4_Fusion_Es_3kT_Ens_05kT.colvars.traj".
colvars: Saving collective variables state to "rest.colvars.state".
colvars: Synchronizing (emptying the buffer of) trajectory file "Run4_Fusion_Es_3kT_Ens_05kT.colvars.traj".
colvars: Saving collective variables state to "rest.colvars.state".
colvars: Synchronizing (emptying the buffer of) trajectory file "Run4_Fusion_Es_3kT_Ens_05kT.colvars.traj".
colvars: Saving collective variables state to "rest.colvars.state".
colvars: Synchronizing (emptying the buffer of) trajectory file "Run4_Fusion_Es_3kT_Ens_05kT.colvars.traj".
colvars: Saving collective variables state to "rest.colvars.state".
colvars: Synchronizing (emptying the buffer of) trajectory file "Run4_Fusion_Es_3kT_Ens_05kT.colvars.traj".
colvars: Saving collective variables state to "rest.colvars.state".
colvars: Synchronizing (emptying the buffer of) trajectory file "Run4_Fusion_Es_3kT_Ens_05kT.colvars.traj".
colvars: Saving collective variables state to "rest.colvars.state".
colvars: Synchronizing (emptying the buffer of) trajectory file "Run4_Fusion_Es_3kT_Ens_05kT.colvars.traj".
colvars: Saving collective variables state to "rest.colvars.state".
colvars: Synchronizing (emptying the buffer of) trajectory file "Run4_Fusion_Es_3kT_Ens_05kT.colvars.traj".
colvars: Saving collective variables state to "rest.colvars.state".
colvars: Synchronizing (emptying the buffer of) trajectory file "Run4_Fusion_Es_3kT_Ens_05kT.colvars.traj".
colvars: Saving collective variables state to "rest.colvars.state".
colvars: Synchronizing (emptying the buffer of) trajectory file "Run4_Fusion_Es_3kT_Ens_05kT.colvars.traj".
colvars: Saving collective variables state to "rest.colvars.state".
colvars: Synchronizing (emptying the buffer of) trajectory file "Run4_Fusion_Es_3kT_Ens_05kT.colvars.traj".
colvars: Saving collective variables state to "rest.colvars.state".
colvars: Synchronizing (emptying the buffer of) trajectory file "Run4_Fusion_Es_3kT_Ens_05kT.colvars.traj".
colvars: Saving collective variables state to "rest.colvars.state".
colvars: Synchronizing (emptying the buffer of) trajectory file "Run4_Fusion_Es_3kT_Ens_05kT.colvars.traj".
colvars: Saving collective variables state to "rest.colvars.state".
colvars: Synchronizing (emptying the buffer of) trajectory file "Run4_Fusion_Es_3kT_Ens_05kT.colvars.traj".
colvars: Saving collective variables state to "rest.colvars.state".
colvars: Synchronizing (emptying the buffer of) trajectory file "Run4_Fusion_Es_3kT_Ens_05kT.colvars.traj".
colvars: Saving collective variables state to "rest.colvars.state".
colvars: Synchronizing (emptying the buffer of) trajectory file "Run4_Fusion_Es_3kT_Ens_05kT.colvars.traj".
colvars: Saving collective variables state to "rest.colvars.state".
colvars: Synchronizing (emptying the buffer of) trajectory file "Run4_Fusion_Es_3kT_Ens_05kT.colvars.traj".
colvars: Saving collective variables state to "rest.colvars.state".
colvars: Synchronizing (emptying the buffer of) trajectory file "Run4_Fusion_Es_3kT_Ens_05kT.colvars.traj".
colvars: Saving collective variables state to "rest.colvars.state".
colvars: Synchronizing (emptying the buffer of) trajectory file "Run4_Fusion_Es_3kT_Ens_05kT.colvars.traj".
colvars: Saving collective variables state to "rest.colvars.state".
colvars: Synchronizing (emptying the buffer of) trajectory file "Run4_Fusion_Es_3kT_Ens_05kT.colvars.traj".
colvars: Saving collective variables state to "rest.colvars.state".
 7000000   -7529.3923    1357.7501    9161.5441    3160.0559    5727.0865    307.38156    10521 
colvars: Synchronizing (emptying the buffer of) trajectory file "Run4_Fusion_Es_3kT_Ens_05kT.colvars.traj".
colvars: Saving collective variables state to "rest.colvars.state".
colvars: Synchronizing (emptying the buffer of) trajectory file "Run4_Fusion_Es_3kT_Ens_05kT.colvars.traj".
colvars: Saving collective variables state to "rest.colvars.state".
colvars: Synchronizing (emptying the buffer of) trajectory file "Run4_Fusion_Es_3kT_Ens_05kT.colvars.traj".
colvars: Saving collective variables state to "rest.colvars.state".
colvars: Synchronizing (emptying the buffer of) trajectory file "Run4_Fusion_Es_3kT_Ens_05kT.colvars.traj".
colvars: Saving collective variables state to "rest.colvars.state".
colvars: Synchronizing (emptying the buffer of) trajectory file "Run4_Fusion_Es_3kT_Ens_05kT.colvars.traj".
colvars: Saving collective variables state to "rest.colvars.state".
colvars: Synchronizing (emptying the buffer of) trajectory file "Run4_Fusion_Es_3kT_Ens_05kT.colvars.traj".
colvars: Saving collective variables state to "rest.colvars.state".
colvars: Synchronizing (emptying the buffer of) trajectory file "Run4_Fusion_Es_3kT_Ens_05kT.colvars.traj".
colvars: Saving collective variables state to "rest.colvars.state".
colvars: Synchronizing (emptying the buffer of) trajectory file "Run4_Fusion_Es_3kT_Ens_05kT.colvars.traj".
colvars: Saving collective variables state to "rest.colvars.state".
colvars: Synchronizing (emptying the buffer of) trajectory file "Run4_Fusion_Es_3kT_Ens_05kT.colvars.traj".
colvars: Saving collective variables state to "rest.colvars.state".
colvars: Synchronizing (emptying the buffer of) trajectory file "Run4_Fusion_Es_3kT_Ens_05kT.colvars.traj".
colvars: Saving collective variables state to "rest.colvars.state".
colvars: Synchronizing (emptying the buffer of) trajectory file "Run4_Fusion_Es_3kT_Ens_05kT.colvars.traj".
colvars: Saving collective variables state to "rest.colvars.state".
colvars: Synchronizing (emptying the buffer of) trajectory file "Run4_Fusion_Es_3kT_Ens_05kT.colvars.traj".
colvars: Saving collective variables state to "rest.colvars.state".
colvars: Synchronizing (emptying the buffer of) trajectory file "Run4_Fusion_Es_3kT_Ens_05kT.colvars.traj".
colvars: Saving collective variables state to "rest.colvars.state".
colvars: Synchronizing (emptying the buffer of) trajectory file "Run4_Fusion_Es_3kT_Ens_05kT.colvars.traj".
colvars: Saving collective variables state to "rest.colvars.state".
colvars: Synchronizing (emptying the buffer of) trajectory file "Run4_Fusion_Es_3kT_Ens_05kT.colvars.traj".
colvars: Saving collective variables state to "rest.colvars.state".
colvars: Synchronizing (emptying the buffer of) trajectory file "Run4_Fusion_Es_3kT_Ens_05kT.colvars.traj".
colvars: Saving collective variables state to "rest.colvars.state".
colvars: Synchronizing (emptying the buffer of) trajectory file "Run4_Fusion_Es_3kT_Ens_05kT.colvars.traj".
colvars: Saving collective variables state to "rest.colvars.state".
colvars: Synchronizing (emptying the buffer of) trajectory file "Run4_Fusion_Es_3kT_Ens_05kT.colvars.traj".
colvars: Saving collective variables state to "rest.colvars.state".
colvars: Synchronizing (emptying the buffer of) trajectory file "Run4_Fusion_Es_3kT_Ens_05kT.colvars.traj".
colvars: Saving collective variables state to "rest.colvars.state".
colvars: Synchronizing (emptying the buffer of) trajectory file "Run4_Fusion_Es_3kT_Ens_05kT.colvars.traj".
colvars: Saving collective variables state to "rest.colvars.state".
 8000000   -7574.1459    1247.2518    9189.0133    3106.3103    5715.0874    308.30319    10510 
colvars: Synchronizing (emptying the buffer of) trajectory file "Run4_Fusion_Es_3kT_Ens_05kT.colvars.traj".
colvars: Saving collective variables state to "rest.colvars.state".
colvars: Synchronizing (emptying the buffer of) trajectory file "Run4_Fusion_Es_3kT_Ens_05kT.colvars.traj".
colvars: Saving collective variables state to "rest.colvars.state".
colvars: Synchronizing (emptying the buffer of) trajectory file "Run4_Fusion_Es_3kT_Ens_05kT.colvars.traj".
colvars: Saving collective variables state to "rest.colvars.state".
colvars: Synchronizing (emptying the buffer of) trajectory file "Run4_Fusion_Es_3kT_Ens_05kT.colvars.traj".
colvars: Saving collective variables state to "rest.colvars.state".
colvars: Synchronizing (emptying the buffer of) trajectory file "Run4_Fusion_Es_3kT_Ens_05kT.colvars.traj".
colvars: Saving collective variables state to "rest.colvars.state".
colvars: Synchronizing (emptying the buffer of) trajectory file "Run4_Fusion_Es_3kT_Ens_05kT.colvars.traj".
colvars: Saving collective variables state to "rest.colvars.state".
colvars: Synchronizing (emptying the buffer of) trajectory file "Run4_Fusion_Es_3kT_Ens_05kT.colvars.traj".
colvars: Saving collective variables state to "rest.colvars.state".
colvars: Synchronizing (emptying the buffer of) trajectory file "Run4_Fusion_Es_3kT_Ens_05kT.colvars.traj".
colvars: Saving collective variables state to "rest.colvars.state".
colvars: Synchronizing (emptying the buffer of) trajectory file "Run4_Fusion_Es_3kT_Ens_05kT.colvars.traj".
colvars: Saving collective variables state to "rest.colvars.state".
colvars: Synchronizing (emptying the buffer of) trajectory file "Run4_Fusion_Es_3kT_Ens_05kT.colvars.traj".
colvars: Saving collective variables state to "rest.colvars.state".
colvars: Synchronizing (emptying the buffer of) trajectory file "Run4_Fusion_Es_3kT_Ens_05kT.colvars.traj".
colvars: Saving collective variables state to "rest.colvars.state".
colvars: Synchronizing (emptying the buffer of) trajectory file "Run4_Fusion_Es_3kT_Ens_05kT.colvars.traj".
colvars: Saving collective variables state to "rest.colvars.state".
colvars: Synchronizing (emptying the buffer of) trajectory file "Run4_Fusion_Es_3kT_Ens_05kT.colvars.traj".
colvars: Saving collective variables state to "rest.colvars.state".
colvars: Synchronizing (emptying the buffer of) trajectory file "Run4_Fusion_Es_3kT_Ens_05kT.colvars.traj".
colvars: Saving collective variables state to "rest.colvars.state".
colvars: Synchronizing (emptying the buffer of) trajectory file "Run4_Fusion_Es_3kT_Ens_05kT.colvars.traj".
colvars: Saving collective variables state to "rest.colvars.state".
colvars: Synchronizing (emptying the buffer of) trajectory file "Run4_Fusion_Es_3kT_Ens_05kT.colvars.traj".
colvars: Saving collective variables state to "rest.colvars.state".
colvars: Synchronizing (emptying the buffer of) trajectory file "Run4_Fusion_Es_3kT_Ens_05kT.colvars.traj".
colvars: Saving collective variables state to "rest.colvars.state".
colvars: Synchronizing (emptying the buffer of) trajectory file "Run4_Fusion_Es_3kT_Ens_05kT.colvars.traj".
colvars: Saving collective variables state to "rest.colvars.state".
colvars: Synchronizing (emptying the buffer of) trajectory file "Run4_Fusion_Es_3kT_Ens_05kT.colvars.traj".
colvars: Saving collective variables state to "rest.colvars.state".
colvars: Synchronizing (emptying the buffer of) trajectory file "Run4_Fusion_Es_3kT_Ens_05kT.colvars.traj".
colvars: Saving collective variables state to "rest.colvars.state".
 9000000   -7569.9455    1179.4681    9329.9686    3087.0641    5662.3494    313.03242    10496 
colvars: Synchronizing (emptying the buffer of) trajectory file "Run4_Fusion_Es_3kT_Ens_05kT.colvars.traj".
colvars: Saving collective variables state to "rest.colvars.state".
colvars: Synchronizing (emptying the buffer of) trajectory file "Run4_Fusion_Es_3kT_Ens_05kT.colvars.traj".
colvars: Saving collective variables state to "rest.colvars.state".
colvars: Synchronizing (emptying the buffer of) trajectory file "Run4_Fusion_Es_3kT_Ens_05kT.colvars.traj".
colvars: Saving collective variables state to "rest.colvars.state".
colvars: Synchronizing (emptying the buffer of) trajectory file "Run4_Fusion_Es_3kT_Ens_05kT.colvars.traj".
colvars: Saving collective variables state to "rest.colvars.state".
colvars: Synchronizing (emptying the buffer of) trajectory file "Run4_Fusion_Es_3kT_Ens_05kT.colvars.traj".
colvars: Saving collective variables state to "rest.colvars.state".
colvars: Synchronizing (emptying the buffer of) trajectory file "Run4_Fusion_Es_3kT_Ens_05kT.colvars.traj".
colvars: Saving collective variables state to "rest.colvars.state".
colvars: Synchronizing (emptying the buffer of) trajectory file "Run4_Fusion_Es_3kT_Ens_05kT.colvars.traj".
colvars: Saving collective variables state to "rest.colvars.state".
colvars: Synchronizing (emptying the buffer of) trajectory file "Run4_Fusion_Es_3kT_Ens_05kT.colvars.traj".
colvars: Saving collective variables state to "rest.colvars.state".
colvars: Synchronizing (emptying the buffer of) trajectory file "Run4_Fusion_Es_3kT_Ens_05kT.colvars.traj".
colvars: Saving collective variables state to "rest.colvars.state".
colvars: Synchronizing (emptying the buffer of) trajectory file "Run4_Fusion_Es_3kT_Ens_05kT.colvars.traj".
colvars: Saving collective variables state to "rest.colvars.state".
colvars: Synchronizing (emptying the buffer of) trajectory file "Run4_Fusion_Es_3kT_Ens_05kT.colvars.traj".
colvars: Saving collective variables state to "rest.colvars.state".
colvars: Synchronizing (emptying the buffer of) trajectory file "Run4_Fusion_Es_3kT_Ens_05kT.colvars.traj".
colvars: Saving collective variables state to "rest.colvars.state".
colvars: Synchronizing (emptying the buffer of) trajectory file "Run4_Fusion_Es_3kT_Ens_05kT.colvars.traj".
colvars: Saving collective variables state to "rest.colvars.state".
colvars: Synchronizing (emptying the buffer of) trajectory file "Run4_Fusion_Es_3kT_Ens_05kT.colvars.traj".
colvars: Saving collective variables state to "rest.colvars.state".
colvars: Synchronizing (emptying the buffer of) trajectory file "Run4_Fusion_Es_3kT_Ens_05kT.colvars.traj".
colvars: Saving collective variables state to "rest.colvars.state".
colvars: Synchronizing (emptying the buffer of) trajectory file "Run4_Fusion_Es_3kT_Ens_05kT.colvars.traj".
colvars: Saving collective variables state to "rest.colvars.state".
colvars: Synchronizing (emptying the buffer of) trajectory file "Run4_Fusion_Es_3kT_Ens_05kT.colvars.traj".
colvars: Saving collective variables state to "rest.colvars.state".
colvars: Synchronizing (emptying the buffer of) trajectory file "Run4_Fusion_Es_3kT_Ens_05kT.colvars.traj".
colvars: Saving collective variables state to "rest.colvars.state".
colvars: Synchronizing (emptying the buffer of) trajectory file "Run4_Fusion_Es_3kT_Ens_05kT.colvars.traj".
colvars: Saving collective variables state to "rest.colvars.state".
colvars: Synchronizing (emptying the buffer of) trajectory file "Run4_Fusion_Es_3kT_Ens_05kT.colvars.traj".
colvars: Saving collective variables state to "rest.colvars.state".
10000000   -7647.8683    1021.3703    9226.5146     3027.531    5641.7077     309.5614    10511 
colvars: Synchronizing (emptying the buffer of) trajectory file "Run4_Fusion_Es_3kT_Ens_05kT.colvars.traj".
colvars: Saving collective variables state to "rest.colvars.state".
colvars: Synchronizing (emptying the buffer of) trajectory file "Run4_Fusion_Es_3kT_Ens_05kT.colvars.traj".
colvars: Saving collective variables state to "rest.colvars.state".
colvars: Synchronizing (emptying the buffer of) trajectory file "Run4_Fusion_Es_3kT_Ens_05kT.colvars.traj".
colvars: Saving collective variables state to "rest.colvars.state".
colvars: Synchronizing (emptying the buffer of) trajectory file "Run4_Fusion_Es_3kT_Ens_05kT.colvars.traj".
colvars: Saving collective variables state to "rest.colvars.state".
colvars: Synchronizing (emptying the buffer of) trajectory file "Run4_Fusion_Es_3kT_Ens_05kT.colvars.traj".
colvars: Saving collective variables state to "rest.colvars.state".
colvars: Synchronizing (emptying the buffer of) trajectory file "Run4_Fusion_Es_3kT_Ens_05kT.colvars.traj".
colvars: Saving collective variables state to "rest.colvars.state".
colvars: Synchronizing (emptying the buffer of) trajectory file "Run4_Fusion_Es_3kT_Ens_05kT.colvars.traj".
colvars: Saving collective variables state to "rest.colvars.state".
colvars: Synchronizing (emptying the buffer of) trajectory file "Run4_Fusion_Es_3kT_Ens_05kT.colvars.traj".
colvars: Saving collective variables state to "rest.colvars.state".
colvars: Synchronizing (emptying the buffer of) trajectory file "Run4_Fusion_Es_3kT_Ens_05kT.colvars.traj".
colvars: Saving collective variables state to "rest.colvars.state".
colvars: Synchronizing (emptying the buffer of) trajectory file "Run4_Fusion_Es_3kT_Ens_05kT.colvars.traj".
colvars: Saving collective variables state to "rest.colvars.state".
colvars: Synchronizing (emptying the buffer of) trajectory file "Run4_Fusion_Es_3kT_Ens_05kT.colvars.traj".
colvars: Saving collective variables state to "rest.colvars.state".
colvars: Synchronizing (emptying the buffer of) trajectory file "Run4_Fusion_Es_3kT_Ens_05kT.colvars.traj".
colvars: Saving collective variables state to "rest.colvars.state".
colvars: Synchronizing (emptying the buffer of) trajectory file "Run4_Fusion_Es_3kT_Ens_05kT.colvars.traj".
colvars: Saving collective variables state to "rest.colvars.state".
colvars: Synchronizing (emptying the buffer of) trajectory file "Run4_Fusion_Es_3kT_Ens_05kT.colvars.traj".
colvars: Saving collective variables state to "rest.colvars.state".
colvars: Synchronizing (emptying the buffer of) trajectory file "Run4_Fusion_Es_3kT_Ens_05kT.colvars.traj".
colvars: Saving collective variables state to "rest.colvars.state".
colvars: Synchronizing (emptying the buffer of) trajectory file "Run4_Fusion_Es_3kT_Ens_05kT.colvars.traj".
colvars: Saving collective variables state to "rest.colvars.state".
colvars: Synchronizing (emptying the buffer of) trajectory file "Run4_Fusion_Es_3kT_Ens_05kT.colvars.traj".
colvars: Saving collective variables state to "rest.colvars.state".
colvars: Synchronizing (emptying the buffer of) trajectory file "Run4_Fusion_Es_3kT_Ens_05kT.colvars.traj".
colvars: Saving collective variables state to "rest.colvars.state".
colvars: Synchronizing (emptying the buffer of) trajectory file "Run4_Fusion_Es_3kT_Ens_05kT.colvars.traj".
colvars: Saving collective variables state to "rest.colvars.state".
colvars: Synchronizing (emptying the buffer of) trajectory file "Run4_Fusion_Es_3kT_Ens_05kT.colvars.traj".
colvars: Saving collective variables state to "rest.colvars.state".
11000000   -7640.8485    1163.9054     9315.495    3076.2142    5728.5397    312.54681    10516 
colvars: Synchronizing (emptying the buffer of) trajectory file "Run4_Fusion_Es_3kT_Ens_05kT.colvars.traj".
colvars: Saving collective variables state to "rest.colvars.state".
colvars: Synchronizing (emptying the buffer of) trajectory file "Run4_Fusion_Es_3kT_Ens_05kT.colvars.traj".
colvars: Saving collective variables state to "rest.colvars.state".
colvars: Synchronizing (emptying the buffer of) trajectory file "Run4_Fusion_Es_3kT_Ens_05kT.colvars.traj".
colvars: Saving collective variables state to "rest.colvars.state".
colvars: Synchronizing (emptying the buffer of) trajectory file "Run4_Fusion_Es_3kT_Ens_05kT.colvars.traj".
colvars: Saving collective variables state to "rest.colvars.state".
colvars: Synchronizing (emptying the buffer of) trajectory file "Run4_Fusion_Es_3kT_Ens_05kT.colvars.traj".
colvars: Saving collective variables state to "rest.colvars.state".
colvars: Synchronizing (emptying the buffer of) trajectory file "Run4_Fusion_Es_3kT_Ens_05kT.colvars.traj".
colvars: Saving collective variables state to "rest.colvars.state".
colvars: Synchronizing (emptying the buffer of) trajectory file "Run4_Fusion_Es_3kT_Ens_05kT.colvars.traj".
colvars: Saving collective variables state to "rest.colvars.state".
colvars: Synchronizing (emptying the buffer of) trajectory file "Run4_Fusion_Es_3kT_Ens_05kT.colvars.traj".
colvars: Saving collective variables state to "rest.colvars.state".
colvars: Synchronizing (emptying the buffer of) trajectory file "Run4_Fusion_Es_3kT_Ens_05kT.colvars.traj".
colvars: Saving collective variables state to "rest.colvars.state".
colvars: Synchronizing (emptying the buffer of) trajectory file "Run4_Fusion_Es_3kT_Ens_05kT.colvars.traj".
colvars: Saving collective variables state to "rest.colvars.state".
colvars: Synchronizing (emptying the buffer of) trajectory file "Run4_Fusion_Es_3kT_Ens_05kT.colvars.traj".
colvars: Saving collective variables state to "rest.colvars.state".
colvars: Synchronizing (emptying the buffer of) trajectory file "Run4_Fusion_Es_3kT_Ens_05kT.colvars.traj".
colvars: Saving collective variables state to "rest.colvars.state".
colvars: Synchronizing (emptying the buffer of) trajectory file "Run4_Fusion_Es_3kT_Ens_05kT.colvars.traj".
colvars: Saving collective variables state to "rest.colvars.state".
colvars: Synchronizing (emptying the buffer of) trajectory file "Run4_Fusion_Es_3kT_Ens_05kT.colvars.traj".
colvars: Saving collective variables state to "rest.colvars.state".
colvars: Synchronizing (emptying the buffer of) trajectory file "Run4_Fusion_Es_3kT_Ens_05kT.colvars.traj".
colvars: Saving collective variables state to "rest.colvars.state".
colvars: Synchronizing (emptying the buffer of) trajectory file "Run4_Fusion_Es_3kT_Ens_05kT.colvars.traj".
colvars: Saving collective variables state to "rest.colvars.state".
colvars: Synchronizing (emptying the buffer of) trajectory file "Run4_Fusion_Es_3kT_Ens_05kT.colvars.traj".
colvars: Saving collective variables state to "rest.colvars.state".
colvars: Synchronizing (emptying the buffer of) trajectory file "Run4_Fusion_Es_3kT_Ens_05kT.colvars.traj".
colvars: Saving collective variables state to "rest.colvars.state".
colvars: Synchronizing (emptying the buffer of) trajectory file "Run4_Fusion_Es_3kT_Ens_05kT.colvars.traj".
colvars: Saving collective variables state to "rest.colvars.state".
colvars: Synchronizing (emptying the buffer of) trajectory file "Run4_Fusion_Es_3kT_Ens_05kT.colvars.traj".
colvars: Saving collective variables state to "rest.colvars.state".
12000000   -7589.1942    1112.3335    9241.0963    3090.3077      5611.22    310.05064    10518 
colvars: Synchronizing (emptying the buffer of) trajectory file "Run4_Fusion_Es_3kT_Ens_05kT.colvars.traj".
colvars: Saving collective variables state to "rest.colvars.state".
colvars: Synchronizing (emptying the buffer of) trajectory file "Run4_Fusion_Es_3kT_Ens_05kT.colvars.traj".
colvars: Saving collective variables state to "rest.colvars.state".
colvars: Synchronizing (emptying the buffer of) trajectory file "Run4_Fusion_Es_3kT_Ens_05kT.colvars.traj".
colvars: Saving collective variables state to "rest.colvars.state".
colvars: Synchronizing (emptying the buffer of) trajectory file "Run4_Fusion_Es_3kT_Ens_05kT.colvars.traj".
colvars: Saving collective variables state to "rest.colvars.state".
colvars: Synchronizing (emptying the buffer of) trajectory file "Run4_Fusion_Es_3kT_Ens_05kT.colvars.traj".
colvars: Saving collective variables state to "rest.colvars.state".
colvars: Synchronizing (emptying the buffer of) trajectory file "Run4_Fusion_Es_3kT_Ens_05kT.colvars.traj".
colvars: Saving collective variables state to "rest.colvars.state".
colvars: Synchronizing (emptying the buffer of) trajectory file "Run4_Fusion_Es_3kT_Ens_05kT.colvars.traj".
colvars: Saving collective variables state to "rest.colvars.state".
colvars: Synchronizing (emptying the buffer of) trajectory file "Run4_Fusion_Es_3kT_Ens_05kT.colvars.traj".
colvars: Saving collective variables state to "rest.colvars.state".
colvars: Synchronizing (emptying the buffer of) trajectory file "Run4_Fusion_Es_3kT_Ens_05kT.colvars.traj".
colvars: Saving collective variables state to "rest.colvars.state".
colvars: Synchronizing (emptying the buffer of) trajectory file "Run4_Fusion_Es_3kT_Ens_05kT.colvars.traj".
colvars: Saving collective variables state to "rest.colvars.state".
colvars: Synchronizing (emptying the buffer of) trajectory file "Run4_Fusion_Es_3kT_Ens_05kT.colvars.traj".
colvars: Saving collective variables state to "rest.colvars.state".
colvars: Synchronizing (emptying the buffer of) trajectory file "Run4_Fusion_Es_3kT_Ens_05kT.colvars.traj".
colvars: Saving collective variables state to "rest.colvars.state".
colvars: Synchronizing (emptying the buffer of) trajectory file "Run4_Fusion_Es_3kT_Ens_05kT.colvars.traj".
colvars: Saving collective variables state to "rest.colvars.state".
colvars: Synchronizing (emptying the buffer of) trajectory file "Run4_Fusion_Es_3kT_Ens_05kT.colvars.traj".
colvars: Saving collective variables state to "rest.colvars.state".
colvars: Synchronizing (emptying the buffer of) trajectory file "Run4_Fusion_Es_3kT_Ens_05kT.colvars.traj".
colvars: Saving collective variables state to "rest.colvars.state".
colvars: Synchronizing (emptying the buffer of) trajectory file "Run4_Fusion_Es_3kT_Ens_05kT.colvars.traj".
colvars: Saving collective variables state to "rest.colvars.state".
colvars: Synchronizing (emptying the buffer of) trajectory file "Run4_Fusion_Es_3kT_Ens_05kT.colvars.traj".
colvars: Saving collective variables state to "rest.colvars.state".
colvars: Synchronizing (emptying the buffer of) trajectory file "Run4_Fusion_Es_3kT_Ens_05kT.colvars.traj".
colvars: Saving collective variables state to "rest.colvars.state".
colvars: Synchronizing (emptying the buffer of) trajectory file "Run4_Fusion_Es_3kT_Ens_05kT.colvars.traj".
colvars: Saving collective variables state to "rest.colvars.state".
colvars: Synchronizing (emptying the buffer of) trajectory file "Run4_Fusion_Es_3kT_Ens_05kT.colvars.traj".
colvars: Saving collective variables state to "rest.colvars.state".
13000000   -7700.6604    1157.5807    9294.6921    3127.2302    5731.0109    311.84884    10520 
colvars: Synchronizing (emptying the buffer of) trajectory file "Run4_Fusion_Es_3kT_Ens_05kT.colvars.traj".
colvars: Saving collective variables state to "rest.colvars.state".
colvars: Synchronizing (emptying the buffer of) trajectory file "Run4_Fusion_Es_3kT_Ens_05kT.colvars.traj".
colvars: Saving collective variables state to "rest.colvars.state".
colvars: Synchronizing (emptying the buffer of) trajectory file "Run4_Fusion_Es_3kT_Ens_05kT.colvars.traj".
colvars: Saving collective variables state to "rest.colvars.state".
colvars: Synchronizing (emptying the buffer of) trajectory file "Run4_Fusion_Es_3kT_Ens_05kT.colvars.traj".
colvars: Saving collective variables state to "rest.colvars.state".
colvars: Synchronizing (emptying the buffer of) trajectory file "Run4_Fusion_Es_3kT_Ens_05kT.colvars.traj".
colvars: Saving collective variables state to "rest.colvars.state".
colvars: Synchronizing (emptying the buffer of) trajectory file "Run4_Fusion_Es_3kT_Ens_05kT.colvars.traj".
colvars: Saving collective variables state to "rest.colvars.state".
colvars: Synchronizing (emptying the buffer of) trajectory file "Run4_Fusion_Es_3kT_Ens_05kT.colvars.traj".
colvars: Saving collective variables state to "rest.colvars.state".
colvars: Synchronizing (emptying the buffer of) trajectory file "Run4_Fusion_Es_3kT_Ens_05kT.colvars.traj".
colvars: Saving collective variables state to "rest.colvars.state".
colvars: Synchronizing (emptying the buffer of) trajectory file "Run4_Fusion_Es_3kT_Ens_05kT.colvars.traj".
colvars: Saving collective variables state to "rest.colvars.state".
colvars: Synchronizing (emptying the buffer of) trajectory file "Run4_Fusion_Es_3kT_Ens_05kT.colvars.traj".
colvars: Saving collective variables state to "rest.colvars.state".
colvars: Synchronizing (emptying the buffer of) trajectory file "Run4_Fusion_Es_3kT_Ens_05kT.colvars.traj".
colvars: Saving collective variables state to "rest.colvars.state".
colvars: Synchronizing (emptying the buffer of) trajectory file "Run4_Fusion_Es_3kT_Ens_05kT.colvars.traj".
colvars: Saving collective variables state to "rest.colvars.state".
colvars: Synchronizing (emptying the buffer of) trajectory file "Run4_Fusion_Es_3kT_Ens_05kT.colvars.traj".
colvars: Saving collective variables state to "rest.colvars.state".
colvars: Synchronizing (emptying the buffer of) trajectory file "Run4_Fusion_Es_3kT_Ens_05kT.colvars.traj".
colvars: Saving collective variables state to "rest.colvars.state".
colvars: Synchronizing (emptying the buffer of) trajectory file "Run4_Fusion_Es_3kT_Ens_05kT.colvars.traj".
colvars: Saving collective variables state to "rest.colvars.state".
colvars: Synchronizing (emptying the buffer of) trajectory file "Run4_Fusion_Es_3kT_Ens_05kT.colvars.traj".
colvars: Saving collective variables state to "rest.colvars.state".
colvars: Synchronizing (emptying the buffer of) trajectory file "Run4_Fusion_Es_3kT_Ens_05kT.colvars.traj".
colvars: Saving collective variables state to "rest.colvars.state".
colvars: Synchronizing (emptying the buffer of) trajectory file "Run4_Fusion_Es_3kT_Ens_05kT.colvars.traj".
colvars: Saving collective variables state to "rest.colvars.state".
colvars: Synchronizing (emptying the buffer of) trajectory file "Run4_Fusion_Es_3kT_Ens_05kT.colvars.traj".
colvars: Saving collective variables state to "rest.colvars.state".
colvars: Synchronizing (emptying the buffer of) trajectory file "Run4_Fusion_Es_3kT_Ens_05kT.colvars.traj".
colvars: Saving collective variables state to "rest.colvars.state".
14000000   -7554.8296     1237.144    9308.2667    3101.3394    5690.6342    312.30429    10502 
colvars: Synchronizing (emptying the buffer of) trajectory file "Run4_Fusion_Es_3kT_Ens_05kT.colvars.traj".
colvars: Saving collective variables state to "rest.colvars.state".
colvars: Synchronizing (emptying the buffer of) trajectory file "Run4_Fusion_Es_3kT_Ens_05kT.colvars.traj".
colvars: Saving collective variables state to "rest.colvars.state".
colvars: Synchronizing (emptying the buffer of) trajectory file "Run4_Fusion_Es_3kT_Ens_05kT.colvars.traj".
colvars: Saving collective variables state to "rest.colvars.state".
colvars: Synchronizing (emptying the buffer of) trajectory file "Run4_Fusion_Es_3kT_Ens_05kT.colvars.traj".
colvars: Saving collective variables state to "rest.colvars.state".
colvars: Synchronizing (emptying the buffer of) trajectory file "Run4_Fusion_Es_3kT_Ens_05kT.colvars.traj".
colvars: Saving collective variables state to "rest.colvars.state".
colvars: Synchronizing (emptying the buffer of) trajectory file "Run4_Fusion_Es_3kT_Ens_05kT.colvars.traj".
colvars: Saving collective variables state to "rest.colvars.state".
colvars: Synchronizing (emptying the buffer of) trajectory file "Run4_Fusion_Es_3kT_Ens_05kT.colvars.traj".
colvars: Saving collective variables state to "rest.colvars.state".
colvars: Synchronizing (emptying the buffer of) trajectory file "Run4_Fusion_Es_3kT_Ens_05kT.colvars.traj".
colvars: Saving collective variables state to "rest.colvars.state".
colvars: Synchronizing (emptying the buffer of) trajectory file "Run4_Fusion_Es_3kT_Ens_05kT.colvars.traj".
colvars: Saving collective variables state to "rest.colvars.state".
colvars: Synchronizing (emptying the buffer of) trajectory file "Run4_Fusion_Es_3kT_Ens_05kT.colvars.traj".
colvars: Saving collective variables state to "rest.colvars.state".
colvars: Synchronizing (emptying the buffer of) trajectory file "Run4_Fusion_Es_3kT_Ens_05kT.colvars.traj".
colvars: Saving collective variables state to "rest.colvars.state".
colvars: Synchronizing (emptying the buffer of) trajectory file "Run4_Fusion_Es_3kT_Ens_05kT.colvars.traj".
colvars: Saving collective variables state to "rest.colvars.state".
colvars: Synchronizing (emptying the buffer of) trajectory file "Run4_Fusion_Es_3kT_Ens_05kT.colvars.traj".
colvars: Saving collective variables state to "rest.colvars.state".
colvars: Synchronizing (emptying the buffer of) trajectory file "Run4_Fusion_Es_3kT_Ens_05kT.colvars.traj".
colvars: Saving collective variables state to "rest.colvars.state".
colvars: Synchronizing (emptying the buffer of) trajectory file "Run4_Fusion_Es_3kT_Ens_05kT.colvars.traj".
colvars: Saving collective variables state to "rest.colvars.state".
colvars: Synchronizing (emptying the buffer of) trajectory file "Run4_Fusion_Es_3kT_Ens_05kT.colvars.traj".
colvars: Saving collective variables state to "rest.colvars.state".
colvars: Synchronizing (emptying the buffer of) trajectory file "Run4_Fusion_Es_3kT_Ens_05kT.colvars.traj".
colvars: Saving collective variables state to "rest.colvars.state".
colvars: Synchronizing (emptying the buffer of) trajectory file "Run4_Fusion_Es_3kT_Ens_05kT.colvars.traj".
colvars: Saving collective variables state to "rest.colvars.state".
colvars: Synchronizing (emptying the buffer of) trajectory file "Run4_Fusion_Es_3kT_Ens_05kT.colvars.traj".
colvars: Saving collective variables state to "rest.colvars.state".
colvars: Synchronizing (emptying the buffer of) trajectory file "Run4_Fusion_Es_3kT_Ens_05kT.colvars.traj".
colvars: Saving collective variables state to "rest.colvars.state".
15000000   -7535.5181    1365.7331    9364.1942    3172.9353    5728.3159    314.18073    10517 
colvars: Synchronizing (emptying the buffer of) trajectory file "Run4_Fusion_Es_3kT_Ens_05kT.colvars.traj".
colvars: Saving collective variables state to "rest.colvars.state".
colvars: Synchronizing (emptying the buffer of) trajectory file "Run4_Fusion_Es_3kT_Ens_05kT.colvars.traj".
colvars: Saving collective variables state to "rest.colvars.state".
colvars: Synchronizing (emptying the buffer of) trajectory file "Run4_Fusion_Es_3kT_Ens_05kT.colvars.traj".
colvars: Saving collective variables state to "rest.colvars.state".
colvars: Synchronizing (emptying the buffer of) trajectory file "Run4_Fusion_Es_3kT_Ens_05kT.colvars.traj".
colvars: Saving collective variables state to "rest.colvars.state".
colvars: Synchronizing (emptying the buffer of) trajectory file "Run4_Fusion_Es_3kT_Ens_05kT.colvars.traj".
colvars: Saving collective variables state to "rest.colvars.state".
colvars: Synchronizing (emptying the buffer of) trajectory file "Run4_Fusion_Es_3kT_Ens_05kT.colvars.traj".
colvars: Saving collective variables state to "rest.colvars.state".
colvars: Synchronizing (emptying the buffer of) trajectory file "Run4_Fusion_Es_3kT_Ens_05kT.colvars.traj".
colvars: Saving collective variables state to "rest.colvars.state".
colvars: Synchronizing (emptying the buffer of) trajectory file "Run4_Fusion_Es_3kT_Ens_05kT.colvars.traj".
colvars: Saving collective variables state to "rest.colvars.state".
colvars: Synchronizing (emptying the buffer of) trajectory file "Run4_Fusion_Es_3kT_Ens_05kT.colvars.traj".
colvars: Saving collective variables state to "rest.colvars.state".
colvars: Synchronizing (emptying the buffer of) trajectory file "Run4_Fusion_Es_3kT_Ens_05kT.colvars.traj".
colvars: Saving collective variables state to "rest.colvars.state".
colvars: Synchronizing (emptying the buffer of) trajectory file "Run4_Fusion_Es_3kT_Ens_05kT.colvars.traj".
colvars: Saving collective variables state to "rest.colvars.state".
colvars: Synchronizing (emptying the buffer of) trajectory file "Run4_Fusion_Es_3kT_Ens_05kT.colvars.traj".
colvars: Saving collective variables state to "rest.colvars.state".
colvars: Synchronizing (emptying the buffer of) trajectory file "Run4_Fusion_Es_3kT_Ens_05kT.colvars.traj".
colvars: Saving collective variables state to "rest.colvars.state".
colvars: Synchronizing (emptying the buffer of) trajectory file "Run4_Fusion_Es_3kT_Ens_05kT.colvars.traj".
colvars: Saving collective variables state to "rest.colvars.state".
colvars: Synchronizing (emptying the buffer of) trajectory file "Run4_Fusion_Es_3kT_Ens_05kT.colvars.traj".
colvars: Saving collective variables state to "rest.colvars.state".
colvars: Synchronizing (emptying the buffer of) trajectory file "Run4_Fusion_Es_3kT_Ens_05kT.colvars.traj".
colvars: Saving collective variables state to "rest.colvars.state".
colvars: Synchronizing (emptying the buffer of) trajectory file "Run4_Fusion_Es_3kT_Ens_05kT.colvars.traj".
colvars: Saving collective variables state to "rest.colvars.state".
colvars: Synchronizing (emptying the buffer of) trajectory file "Run4_Fusion_Es_3kT_Ens_05kT.colvars.traj".
colvars: Saving collective variables state to "rest.colvars.state".
colvars: Synchronizing (emptying the buffer of) trajectory file "Run4_Fusion_Es_3kT_Ens_05kT.colvars.traj".
colvars: Saving collective variables state to "rest.colvars.state".
colvars: Synchronizing (emptying the buffer of) trajectory file "Run4_Fusion_Es_3kT_Ens_05kT.colvars.traj".
colvars: Saving collective variables state to "rest.colvars.state".
16000000   -7546.3303    1286.2632    9234.7244    3063.4414    5769.1521    309.83685    10514 
colvars: Synchronizing (emptying the buffer of) trajectory file "Run4_Fusion_Es_3kT_Ens_05kT.colvars.traj".
colvars: Saving collective variables state to "rest.colvars.state".
colvars: Synchronizing (emptying the buffer of) trajectory file "Run4_Fusion_Es_3kT_Ens_05kT.colvars.traj".
colvars: Saving collective variables state to "rest.colvars.state".
colvars: Synchronizing (emptying the buffer of) trajectory file "Run4_Fusion_Es_3kT_Ens_05kT.colvars.traj".
colvars: Saving collective variables state to "rest.colvars.state".
colvars: Synchronizing (emptying the buffer of) trajectory file "Run4_Fusion_Es_3kT_Ens_05kT.colvars.traj".
colvars: Saving collective variables state to "rest.colvars.state".
colvars: Synchronizing (emptying the buffer of) trajectory file "Run4_Fusion_Es_3kT_Ens_05kT.colvars.traj".
colvars: Saving collective variables state to "rest.colvars.state".
colvars: Synchronizing (emptying the buffer of) trajectory file "Run4_Fusion_Es_3kT_Ens_05kT.colvars.traj".
colvars: Saving collective variables state to "rest.colvars.state".
colvars: Synchronizing (emptying the buffer of) trajectory file "Run4_Fusion_Es_3kT_Ens_05kT.colvars.traj".
colvars: Saving collective variables state to "rest.colvars.state".
colvars: Synchronizing (emptying the buffer of) trajectory file "Run4_Fusion_Es_3kT_Ens_05kT.colvars.traj".
colvars: Saving collective variables state to "rest.colvars.state".
colvars: Synchronizing (emptying the buffer of) trajectory file "Run4_Fusion_Es_3kT_Ens_05kT.colvars.traj".
colvars: Saving collective variables state to "rest.colvars.state".
colvars: Synchronizing (emptying the buffer of) trajectory file "Run4_Fusion_Es_3kT_Ens_05kT.colvars.traj".
colvars: Saving collective variables state to "rest.colvars.state".
colvars: Synchronizing (emptying the buffer of) trajectory file "Run4_Fusion_Es_3kT_Ens_05kT.colvars.traj".
colvars: Saving collective variables state to "rest.colvars.state".
colvars: Synchronizing (emptying the buffer of) trajectory file "Run4_Fusion_Es_3kT_Ens_05kT.colvars.traj".
colvars: Saving collective variables state to "rest.colvars.state".
colvars: Synchronizing (emptying the buffer of) trajectory file "Run4_Fusion_Es_3kT_Ens_05kT.colvars.traj".
colvars: Saving collective variables state to "rest.colvars.state".
colvars: Synchronizing (emptying the buffer of) trajectory file "Run4_Fusion_Es_3kT_Ens_05kT.colvars.traj".
colvars: Saving collective variables state to "rest.colvars.state".
colvars: Synchronizing (emptying the buffer of) trajectory file "Run4_Fusion_Es_3kT_Ens_05kT.colvars.traj".
colvars: Saving collective variables state to "rest.colvars.state".
colvars: Synchronizing (emptying the buffer of) trajectory file "Run4_Fusion_Es_3kT_Ens_05kT.colvars.traj".
colvars: Saving collective variables state to "rest.colvars.state".
colvars: Synchronizing (emptying the buffer of) trajectory file "Run4_Fusion_Es_3kT_Ens_05kT.colvars.traj".
colvars: Saving collective variables state to "rest.colvars.state".
colvars: Synchronizing (emptying the buffer of) trajectory file "Run4_Fusion_Es_3kT_Ens_05kT.colvars.traj".
colvars: Saving collective variables state to "rest.colvars.state".
colvars: Synchronizing (emptying the buffer of) trajectory file "Run4_Fusion_Es_3kT_Ens_05kT.colvars.traj".
colvars: Saving collective variables state to "rest.colvars.state".
colvars: Synchronizing (emptying the buffer of) trajectory file "Run4_Fusion_Es_3kT_Ens_05kT.colvars.traj".
colvars: Saving collective variables state to "rest.colvars.state".
17000000   -7515.1237    1294.4865    9283.1929    3179.9292     5629.681    311.46303    10504 
colvars: Synchronizing (emptying the buffer of) trajectory file "Run4_Fusion_Es_3kT_Ens_05kT.colvars.traj".
colvars: Saving collective variables state to "rest.colvars.state".
colvars: Synchronizing (emptying the buffer of) trajectory file "Run4_Fusion_Es_3kT_Ens_05kT.colvars.traj".
colvars: Saving collective variables state to "rest.colvars.state".
colvars: Synchronizing (emptying the buffer of) trajectory file "Run4_Fusion_Es_3kT_Ens_05kT.colvars.traj".
colvars: Saving collective variables state to "rest.colvars.state".
colvars: Synchronizing (emptying the buffer of) trajectory file "Run4_Fusion_Es_3kT_Ens_05kT.colvars.traj".
colvars: Saving collective variables state to "rest.colvars.state".
colvars: Synchronizing (emptying the buffer of) trajectory file "Run4_Fusion_Es_3kT_Ens_05kT.colvars.traj".
colvars: Saving collective variables state to "rest.colvars.state".
colvars: Synchronizing (emptying the buffer of) trajectory file "Run4_Fusion_Es_3kT_Ens_05kT.colvars.traj".
colvars: Saving collective variables state to "rest.colvars.state".
colvars: Synchronizing (emptying the buffer of) trajectory file "Run4_Fusion_Es_3kT_Ens_05kT.colvars.traj".
colvars: Saving collective variables state to "rest.colvars.state".
colvars: Synchronizing (emptying the buffer of) trajectory file "Run4_Fusion_Es_3kT_Ens_05kT.colvars.traj".
colvars: Saving collective variables state to "rest.colvars.state".
colvars: Synchronizing (emptying the buffer of) trajectory file "Run4_Fusion_Es_3kT_Ens_05kT.colvars.traj".
colvars: Saving collective variables state to "rest.colvars.state".
colvars: Synchronizing (emptying the buffer of) trajectory file "Run4_Fusion_Es_3kT_Ens_05kT.colvars.traj".
colvars: Saving collective variables state to "rest.colvars.state".
colvars: Synchronizing (emptying the buffer of) trajectory file "Run4_Fusion_Es_3kT_Ens_05kT.colvars.traj".
colvars: Saving collective variables state to "rest.colvars.state".
colvars: Synchronizing (emptying the buffer of) trajectory file "Run4_Fusion_Es_3kT_Ens_05kT.colvars.traj".
colvars: Saving collective variables state to "rest.colvars.state".
colvars: Synchronizing (emptying the buffer of) trajectory file "Run4_Fusion_Es_3kT_Ens_05kT.colvars.traj".
colvars: Saving collective variables state to "rest.colvars.state".
colvars: Synchronizing (emptying the buffer of) trajectory file "Run4_Fusion_Es_3kT_Ens_05kT.colvars.traj".
colvars: Saving collective variables state to "rest.colvars.state".
colvars: Synchronizing (emptying the buffer of) trajectory file "Run4_Fusion_Es_3kT_Ens_05kT.colvars.traj".
colvars: Saving collective variables state to "rest.colvars.state".
colvars: Synchronizing (emptying the buffer of) trajectory file "Run4_Fusion_Es_3kT_Ens_05kT.colvars.traj".
colvars: Saving collective variables state to "rest.colvars.state".
colvars: Synchronizing (emptying the buffer of) trajectory file "Run4_Fusion_Es_3kT_Ens_05kT.colvars.traj".
colvars: Saving collective variables state to "rest.colvars.state".
colvars: Synchronizing (emptying the buffer of) trajectory file "Run4_Fusion_Es_3kT_Ens_05kT.colvars.traj".
colvars: Saving collective variables state to "rest.colvars.state".
colvars: Synchronizing (emptying the buffer of) trajectory file "Run4_Fusion_Es_3kT_Ens_05kT.colvars.traj".
colvars: Saving collective variables state to "rest.colvars.state".
colvars: Synchronizing (emptying the buffer of) trajectory file "Run4_Fusion_Es_3kT_Ens_05kT.colvars.traj".
colvars: Saving collective variables state to "rest.colvars.state".
18000000   -7632.7419    1244.5206    9296.9104      3147.77    5729.4924    311.92327    10507 
colvars: Synchronizing (emptying the buffer of) trajectory file "Run4_Fusion_Es_3kT_Ens_05kT.colvars.traj".
colvars: Saving collective variables state to "rest.colvars.state".
colvars: Synchronizing (emptying the buffer of) trajectory file "Run4_Fusion_Es_3kT_Ens_05kT.colvars.traj".
colvars: Saving collective variables state to "rest.colvars.state".
[...]
colvars: Saving collective variables state to "rest.colvars.state".
colvars: Synchronizing (emptying the buffer of) trajectory file "Run4_Fusion_Es_3kT_Ens_05kT.colvars.traj".
colvars: Saving collective variables state to "rest.colvars.state".
595000000   -7821.4177    992.39158    9286.1023    3131.0235    5682.7858    311.56065    10512 
colvars: Synchronizing (emptying the buffer of) trajectory file "Run4_Fusion_Es_3kT_Ens_05kT.colvars.traj".
colvars: Saving collective variables state to "rest.colvars.state".
colvars: Synchronizing (emptying the buffer of) trajectory file "Run4_Fusion_Es_3kT_Ens_05kT.colvars.traj".
colvars: Saving collective variables state to "rest.colvars.state".
colvars: Synchronizing (emptying the buffer of) trajectory file "Run4_Fusion_Es_3kT_Ens_05kT.colvars.traj".
colvars: Saving collective variables state to "rest.colvars.state".
colvars: Synchronizing (emptying the buffer of) trajectory file "Run4_Fusion_Es_3kT_Ens_05kT.colvars.traj".
colvars: Saving collective variables state to "rest.colvars.state".
colvars: Synchronizing (emptying the buffer of) trajectory file "Run4_Fusion_Es_3kT_Ens_05kT.colvars.traj".
colvars: Saving collective variables state to "rest.colvars.state".
colvars: Synchronizing (emptying the buffer of) trajectory file "Run4_Fusion_Es_3kT_Ens_05kT.colvars.traj".
colvars: Saving collective variables state to "rest.colvars.state".
colvars: Synchronizing (emptying the buffer of) trajectory file "Run4_Fusion_Es_3kT_Ens_05kT.colvars.traj".
colvars: Saving collective variables state to "rest.colvars.state".
colvars: Synchronizing (emptying the buffer of) trajectory file "Run4_Fusion_Es_3kT_Ens_05kT.colvars.traj".
colvars: Saving collective variables state to "rest.colvars.state".
colvars: Synchronizing (emptying the buffer of) trajectory file "Run4_Fusion_Es_3kT_Ens_05kT.colvars.traj".
colvars: Saving collective variables state to "rest.colvars.state".
colvars: Synchronizing (emptying the buffer of) trajectory file "Run4_Fusion_Es_3kT_Ens_05kT.colvars.traj".
colvars: Saving collective variables state to "rest.colvars.state".
colvars: Synchronizing (emptying the buffer of) trajectory file "Run4_Fusion_Es_3kT_Ens_05kT.colvars.traj".
colvars: Saving collective variables state to "rest.colvars.state".
colvars: Synchronizing (emptying the buffer of) trajectory file "Run4_Fusion_Es_3kT_Ens_05kT.colvars.traj".
colvars: Saving collective variables state to "rest.colvars.state".
colvars: Synchronizing (emptying the buffer of) trajectory file "Run4_Fusion_Es_3kT_Ens_05kT.colvars.traj".
colvars: Saving collective variables state to "rest.colvars.state".
colvars: Synchronizing (emptying the buffer of) trajectory file "Run4_Fusion_Es_3kT_Ens_05kT.colvars.traj".
colvars: Saving collective variables state to "rest.colvars.state".
colvars: Synchronizing (emptying the buffer of) trajectory file "Run4_Fusion_Es_3kT_Ens_05kT.colvars.traj".
colvars: Saving collective variables state to "rest.colvars.state".
colvars: Synchronizing (emptying the buffer of) trajectory file "Run4_Fusion_Es_3kT_Ens_05kT.colvars.traj".
colvars: Saving collective variables state to "rest.colvars.state".
colvars: Synchronizing (emptying the buffer of) trajectory file "Run4_Fusion_Es_3kT_Ens_05kT.colvars.traj".
colvars: Saving collective variables state to "rest.colvars.state".
colvars: Synchronizing (emptying the buffer of) trajectory file "Run4_Fusion_Es_3kT_Ens_05kT.colvars.traj".
colvars: Saving collective variables state to "rest.colvars.state".
colvars: Synchronizing (emptying the buffer of) trajectory file "Run4_Fusion_Es_3kT_Ens_05kT.colvars.traj".
colvars: Saving collective variables state to "rest.colvars.state".
colvars: Synchronizing (emptying the buffer of) trajectory file "Run4_Fusion_Es_3kT_Ens_05kT.colvars.traj".
colvars: Saving collective variables state to "rest.colvars.state".
596000000   -7991.3615    713.49046    9256.9047     3021.305     5683.547    310.58103    10516 
colvars: Synchronizing (emptying the buffer of) trajectory file "Run4_Fusion_Es_3kT_Ens_05kT.colvars.traj".
colvars: Saving collective variables state to "rest.colvars.state".
colvars: Synchronizing (emptying the buffer of) trajectory file "Run4_Fusion_Es_3kT_Ens_05kT.colvars.traj".
colvars: Saving collective variables state to "rest.colvars.state".
colvars: Synchronizing (emptying the buffer of) trajectory file "Run4_Fusion_Es_3kT_Ens_05kT.colvars.traj".
colvars: Saving collective variables state to "rest.colvars.state".
colvars: Synchronizing (emptying the buffer of) trajectory file "Run4_Fusion_Es_3kT_Ens_05kT.colvars.traj".
colvars: Saving collective variables state to "rest.colvars.state".
colvars: Synchronizing (emptying the buffer of) trajectory file "Run4_Fusion_Es_3kT_Ens_05kT.colvars.traj".
colvars: Saving collective variables state to "rest.colvars.state".
colvars: Synchronizing (emptying the buffer of) trajectory file "Run4_Fusion_Es_3kT_Ens_05kT.colvars.traj".
colvars: Saving collective variables state to "rest.colvars.state".
colvars: Synchronizing (emptying the buffer of) trajectory file "Run4_Fusion_Es_3kT_Ens_05kT.colvars.traj".
colvars: Saving collective variables state to "rest.colvars.state".
colvars: Synchronizing (emptying the buffer of) trajectory file "Run4_Fusion_Es_3kT_Ens_05kT.colvars.traj".
colvars: Saving collective variables state to "rest.colvars.state".
colvars: Synchronizing (emptying the buffer of) trajectory file "Run4_Fusion_Es_3kT_Ens_05kT.colvars.traj".
colvars: Saving collective variables state to "rest.colvars.state".
colvars: Synchronizing (emptying the buffer of) trajectory file "Run4_Fusion_Es_3kT_Ens_05kT.colvars.traj".
colvars: Saving collective variables state to "rest.colvars.state".
colvars: Synchronizing (emptying the buffer of) trajectory file "Run4_Fusion_Es_3kT_Ens_05kT.colvars.traj".
colvars: Saving collective variables state to "rest.colvars.state".
colvars: Synchronizing (emptying the buffer of) trajectory file "Run4_Fusion_Es_3kT_Ens_05kT.colvars.traj".
colvars: Saving collective variables state to "rest.colvars.state".
colvars: Synchronizing (emptying the buffer of) trajectory file "Run4_Fusion_Es_3kT_Ens_05kT.colvars.traj".
colvars: Saving collective variables state to "rest.colvars.state".
colvars: Synchronizing (emptying the buffer of) trajectory file "Run4_Fusion_Es_3kT_Ens_05kT.colvars.traj".
colvars: Saving collective variables state to "rest.colvars.state".
colvars: Synchronizing (emptying the buffer of) trajectory file "Run4_Fusion_Es_3kT_Ens_05kT.colvars.traj".
colvars: Saving collective variables state to "rest.colvars.state".
colvars: Synchronizing (emptying the buffer of) trajectory file "Run4_Fusion_Es_3kT_Ens_05kT.colvars.traj".
colvars: Saving collective variables state to "rest.colvars.state".
colvars: Synchronizing (emptying the buffer of) trajectory file "Run4_Fusion_Es_3kT_Ens_05kT.colvars.traj".
colvars: Saving collective variables state to "rest.colvars.state".
colvars: Synchronizing (emptying the buffer of) trajectory file "Run4_Fusion_Es_3kT_Ens_05kT.colvars.traj".
colvars: Saving collective variables state to "rest.colvars.state".
colvars: Synchronizing (emptying the buffer of) trajectory file "Run4_Fusion_Es_3kT_Ens_05kT.colvars.traj".
colvars: Saving collective variables state to "rest.colvars.state".
colvars: Synchronizing (emptying the buffer of) trajectory file "Run4_Fusion_Es_3kT_Ens_05kT.colvars.traj".
colvars: Saving collective variables state to "rest.colvars.state".
597000000    -7946.194    778.88197    9328.8418    3061.1338    5663.9421    312.99461    10513 
colvars: Synchronizing (emptying the buffer of) trajectory file "Run4_Fusion_Es_3kT_Ens_05kT.colvars.traj".
colvars: Saving collective variables state to "rest.colvars.state".
colvars: Synchronizing (emptying the buffer of) trajectory file "Run4_Fusion_Es_3kT_Ens_05kT.colvars.traj".
colvars: Saving collective variables state to "rest.colvars.state".
colvars: Synchronizing (emptying the buffer of) trajectory file "Run4_Fusion_Es_3kT_Ens_05kT.colvars.traj".
colvars: Saving collective variables state to "rest.colvars.state".
colvars: Synchronizing (emptying the buffer of) trajectory file "Run4_Fusion_Es_3kT_Ens_05kT.colvars.traj".
colvars: Saving collective variables state to "rest.colvars.state".
colvars: Synchronizing (emptying the buffer of) trajectory file "Run4_Fusion_Es_3kT_Ens_05kT.colvars.traj".
colvars: Saving collective variables state to "rest.colvars.state".
colvars: Synchronizing (emptying the buffer of) trajectory file "Run4_Fusion_Es_3kT_Ens_05kT.colvars.traj".
colvars: Saving collective variables state to "rest.colvars.state".
colvars: Synchronizing (emptying the buffer of) trajectory file "Run4_Fusion_Es_3kT_Ens_05kT.colvars.traj".
colvars: Saving collective variables state to "rest.colvars.state".
colvars: Synchronizing (emptying the buffer of) trajectory file "Run4_Fusion_Es_3kT_Ens_05kT.colvars.traj".
colvars: Saving collective variables state to "rest.colvars.state".
colvars: Synchronizing (emptying the buffer of) trajectory file "Run4_Fusion_Es_3kT_Ens_05kT.colvars.traj".
colvars: Saving collective variables state to "rest.colvars.state".
colvars: Synchronizing (emptying the buffer of) trajectory file "Run4_Fusion_Es_3kT_Ens_05kT.colvars.traj".
colvars: Saving collective variables state to "rest.colvars.state".
colvars: Synchronizing (emptying the buffer of) trajectory file "Run4_Fusion_Es_3kT_Ens_05kT.colvars.traj".
colvars: Saving collective variables state to "rest.colvars.state".
colvars: Synchronizing (emptying the buffer of) trajectory file "Run4_Fusion_Es_3kT_Ens_05kT.colvars.traj".
colvars: Saving collective variables state to "rest.colvars.state".
colvars: Synchronizing (emptying the buffer of) trajectory file "Run4_Fusion_Es_3kT_Ens_05kT.colvars.traj".
colvars: Saving collective variables state to "rest.colvars.state".
colvars: Synchronizing (emptying the buffer of) trajectory file "Run4_Fusion_Es_3kT_Ens_05kT.colvars.traj".
colvars: Saving collective variables state to "rest.colvars.state".
colvars: Synchronizing (emptying the buffer of) trajectory file "Run4_Fusion_Es_3kT_Ens_05kT.colvars.traj".
colvars: Saving collective variables state to "rest.colvars.state".
colvars: Synchronizing (emptying the buffer of) trajectory file "Run4_Fusion_Es_3kT_Ens_05kT.colvars.traj".
colvars: Saving collective variables state to "rest.colvars.state".
colvars: Synchronizing (emptying the buffer of) trajectory file "Run4_Fusion_Es_3kT_Ens_05kT.colvars.traj".
colvars: Saving collective variables state to "rest.colvars.state".
colvars: Synchronizing (emptying the buffer of) trajectory file "Run4_Fusion_Es_3kT_Ens_05kT.colvars.traj".
colvars: Saving collective variables state to "rest.colvars.state".
colvars: Synchronizing (emptying the buffer of) trajectory file "Run4_Fusion_Es_3kT_Ens_05kT.colvars.traj".
colvars: Saving collective variables state to "rest.colvars.state".
colvars: Synchronizing (emptying the buffer of) trajectory file "Run4_Fusion_Es_3kT_Ens_05kT.colvars.traj".
colvars: Saving collective variables state to "rest.colvars.state".
598000000   -7860.4038    864.70986    9268.1466    3043.1001    5682.0135    310.95821    10516 
colvars: Synchronizing (emptying the buffer of) trajectory file "Run4_Fusion_Es_3kT_Ens_05kT.colvars.traj".
colvars: Saving collective variables state to "rest.colvars.state".
colvars: Synchronizing (emptying the buffer of) trajectory file "Run4_Fusion_Es_3kT_Ens_05kT.colvars.traj".
colvars: Saving collective variables state to "rest.colvars.state".
colvars: Synchronizing (emptying the buffer of) trajectory file "Run4_Fusion_Es_3kT_Ens_05kT.colvars.traj".
colvars: Saving collective variables state to "rest.colvars.state".
colvars: Synchronizing (emptying the buffer of) trajectory file "Run4_Fusion_Es_3kT_Ens_05kT.colvars.traj".
colvars: Saving collective variables state to "rest.colvars.state".
colvars: Synchronizing (emptying the buffer of) trajectory file "Run4_Fusion_Es_3kT_Ens_05kT.colvars.traj".
colvars: Saving collective variables state to "rest.colvars.state".
colvars: Synchronizing (emptying the buffer of) trajectory file "Run4_Fusion_Es_3kT_Ens_05kT.colvars.traj".
colvars: Saving collective variables state to "rest.colvars.state".
colvars: Synchronizing (emptying the buffer of) trajectory file "Run4_Fusion_Es_3kT_Ens_05kT.colvars.traj".
colvars: Saving collective variables state to "rest.colvars.state".
colvars: Synchronizing (emptying the buffer of) trajectory file "Run4_Fusion_Es_3kT_Ens_05kT.colvars.traj".
colvars: Saving collective variables state to "rest.colvars.state".
colvars: Synchronizing (emptying the buffer of) trajectory file "Run4_Fusion_Es_3kT_Ens_05kT.colvars.traj".
colvars: Saving collective variables state to "rest.colvars.state".
colvars: Synchronizing (emptying the buffer of) trajectory file "Run4_Fusion_Es_3kT_Ens_05kT.colvars.traj".
colvars: Saving collective variables state to "rest.colvars.state".
colvars: Synchronizing (emptying the buffer of) trajectory file "Run4_Fusion_Es_3kT_Ens_05kT.colvars.traj".
colvars: Saving collective variables state to "rest.colvars.state".
colvars: Synchronizing (emptying the buffer of) trajectory file "Run4_Fusion_Es_3kT_Ens_05kT.colvars.traj".
colvars: Saving collective variables state to "rest.colvars.state".
colvars: Synchronizing (emptying the buffer of) trajectory file "Run4_Fusion_Es_3kT_Ens_05kT.colvars.traj".
colvars: Saving collective variables state to "rest.colvars.state".
colvars: Synchronizing (emptying the buffer of) trajectory file "Run4_Fusion_Es_3kT_Ens_05kT.colvars.traj".
colvars: Saving collective variables state to "rest.colvars.state".
colvars: Synchronizing (emptying the buffer of) trajectory file "Run4_Fusion_Es_3kT_Ens_05kT.colvars.traj".
colvars: Saving collective variables state to "rest.colvars.state".
colvars: Synchronizing (emptying the buffer of) trajectory file "Run4_Fusion_Es_3kT_Ens_05kT.colvars.traj".
colvars: Saving collective variables state to "rest.colvars.state".
colvars: Synchronizing (emptying the buffer of) trajectory file "Run4_Fusion_Es_3kT_Ens_05kT.colvars.traj".
colvars: Saving collective variables state to "rest.colvars.state".
colvars: Synchronizing (emptying the buffer of) trajectory file "Run4_Fusion_Es_3kT_Ens_05kT.colvars.traj".
colvars: Saving collective variables state to "rest.colvars.state".
colvars: Synchronizing (emptying the buffer of) trajectory file "Run4_Fusion_Es_3kT_Ens_05kT.colvars.traj".
colvars: Saving collective variables state to "rest.colvars.state".
colvars: Synchronizing (emptying the buffer of) trajectory file "Run4_Fusion_Es_3kT_Ens_05kT.colvars.traj".
colvars: Saving collective variables state to "rest.colvars.state".
599000000   -7702.1578     1066.868    9237.3042    3111.6119    5657.4139    309.92341    10506 
colvars: Synchronizing (emptying the buffer of) trajectory file "Run4_Fusion_Es_3kT_Ens_05kT.colvars.traj".
colvars: Saving collective variables state to "rest.colvars.state".
colvars: Synchronizing (emptying the buffer of) trajectory file "Run4_Fusion_Es_3kT_Ens_05kT.colvars.traj".
colvars: Saving collective variables state to "rest.colvars.state".
colvars: Synchronizing (emptying the buffer of) trajectory file "Run4_Fusion_Es_3kT_Ens_05kT.colvars.traj".
colvars: Saving collective variables state to "rest.colvars.state".
colvars: Synchronizing (emptying the buffer of) trajectory file "Run4_Fusion_Es_3kT_Ens_05kT.colvars.traj".
colvars: Saving collective variables state to "rest.colvars.state".
colvars: Synchronizing (emptying the buffer of) trajectory file "Run4_Fusion_Es_3kT_Ens_05kT.colvars.traj".
colvars: Saving collective variables state to "rest.colvars.state".
colvars: Synchronizing (emptying the buffer of) trajectory file "Run4_Fusion_Es_3kT_Ens_05kT.colvars.traj".
colvars: Saving collective variables state to "rest.colvars.state".
colvars: Synchronizing (emptying the buffer of) trajectory file "Run4_Fusion_Es_3kT_Ens_05kT.colvars.traj".
colvars: Saving collective variables state to "rest.colvars.state".
colvars: Synchronizing (emptying the buffer of) trajectory file "Run4_Fusion_Es_3kT_Ens_05kT.colvars.traj".
colvars: Saving collective variables state to "rest.colvars.state".
colvars: Synchronizing (emptying the buffer of) trajectory file "Run4_Fusion_Es_3kT_Ens_05kT.colvars.traj".
colvars: Saving collective variables state to "rest.colvars.state".
colvars: Synchronizing (emptying the buffer of) trajectory file "Run4_Fusion_Es_3kT_Ens_05kT.colvars.traj".
colvars: Saving collective variables state to "rest.colvars.state".
colvars: Synchronizing (emptying the buffer of) trajectory file "Run4_Fusion_Es_3kT_Ens_05kT.colvars.traj".
colvars: Saving collective variables state to "rest.colvars.state".
colvars: Synchronizing (emptying the buffer of) trajectory file "Run4_Fusion_Es_3kT_Ens_05kT.colvars.traj".
colvars: Saving collective variables state to "rest.colvars.state".
colvars: Synchronizing (emptying the buffer of) trajectory file "Run4_Fusion_Es_3kT_Ens_05kT.colvars.traj".
colvars: Saving collective variables state to "rest.colvars.state".
colvars: Synchronizing (emptying the buffer of) trajectory file "Run4_Fusion_Es_3kT_Ens_05kT.colvars.traj".
colvars: Saving collective variables state to "rest.colvars.state".
colvars: Synchronizing (emptying the buffer of) trajectory file "Run4_Fusion_Es_3kT_Ens_05kT.colvars.traj".
colvars: Saving collective variables state to "rest.colvars.state".
colvars: Synchronizing (emptying the buffer of) trajectory file "Run4_Fusion_Es_3kT_Ens_05kT.colvars.traj".
colvars: Saving collective variables state to "rest.colvars.state".
colvars: Synchronizing (emptying the buffer of) trajectory file "Run4_Fusion_Es_3kT_Ens_05kT.colvars.traj".
colvars: Saving collective variables state to "rest.colvars.state".
colvars: Synchronizing (emptying the buffer of) trajectory file "Run4_Fusion_Es_3kT_Ens_05kT.colvars.traj".
colvars: Saving collective variables state to "rest.colvars.state".
colvars: Synchronizing (emptying the buffer of) trajectory file "Run4_Fusion_Es_3kT_Ens_05kT.colvars.traj".
colvars: Saving collective variables state to "rest.colvars.state".
colvars: Synchronizing (emptying the buffer of) trajectory file "Run4_Fusion_Es_3kT_Ens_05kT.colvars.traj".
colvars: Saving collective variables state to "rest.colvars.state".
600000000   -7835.9765    1073.0657    9283.8239    3158.1443    5750.8979     311.4842    10513 
colvars: Saving collective variables state to "Run4_Fusion_Es_3kT_Ens_05kT.colvars.state".
Loop time of 258618 on 16 procs for 600000000 steps with 10000 atoms

Performance: 5011.245 ns/day, 0.005 hours/ns, 2320.021 timesteps/s
99.7% CPU use with 16 MPI tasks x no OpenMP threads

MPI task timing breakdown:
Section |  min time  |  avg time  |  max time  |%varavg| %total
---------------------------------------------------------------
Pair    | 71395      | 82567      | 89537      |1584.4 | 31.93
Bond    | 12087      | 12222      | 12407      |  81.7 |  4.73
Neigh   | 32366      | 32574      | 32740      |  60.2 | 12.60
Comm    | 41203      | 48870      | 60313      |2215.4 | 18.90
Output  | 3.2272     | 3.2281     | 3.2299     |   0.0 |  0.00
Modify  | 66497      | 72908      | 78525      |1233.6 | 28.19
Other   |            | 9475       |            |       |  3.66

Nlocal:    625 ave 666 max 595 min
Histogram: 3 3 0 3 1 0 1 3 0 2
Nghost:    969.312 ave 1168 max 723 min
Histogram: 1 2 4 1 0 0 0 0 4 4
Neighs:    12892.3 ave 15430 max 10776 min
Histogram: 2 2 0 4 1 2 1 2 1 1

Total # of neighbors = 206277
Ave neighs/atom = 20.6277
Ave special neighs/atom = 7.3374
Neighbor list builds = 35216265
Dangerous builds = 0
write_restart final_state_${fName}.restart
write_restart final_state_Run4_Fusion_Es_3kT_Ens_05kT.restart
colvars: Resetting the Collective Variables module.

Please see the log.cite file for references relevant to this simulation

Total wall time: 71:50:19
