LAMMPS (5 Jun 2019)
Reading data file ...
  orthogonal box = (-304 -286 -252) to (298 316 450)
  2 by 2 by 4 MPI processor grid
  reading atoms ...
  10000 atoms
  scanning bonds ...
  12 = max bonds/atom
  scanning angles ...
  1 = max angles/atom
  reading bonds ...
  10502 bonds
  reading angles ...
  9200 angles
Finding 1-2 1-3 1-4 neighbors ...
  special bond factors lj:   0          0          0         
  special bond factors coul: 0          0          0         
  3 = max # of 1-2 neighbors
  4 = max # of 1-3 neighbors
  8 = max # of 1-4 neighbors
  21 = max # of special neighbors
  special bonds CPU = 0.0426045 secs
  read_data CPU = 0.0978729 secs
Finding 1-2 1-3 1-4 neighbors ...
  special bond factors lj:   1          1          1         
  special bond factors coul: 0          0          0         
  3 = max # of 1-2 neighbors
  4 = max # of 1-3 neighbors
  8 = max # of 1-4 neighbors
  21 = max # of special neighbors
  special bonds CPU = 0.000683163 secs
WARNING: Using 'neigh_modify every 1 delay 0 check yes' setting during minimization (../min.cpp:168)
Neighbor list info ...
  update every 1 steps, delay 0 steps, check yes
  max neighbors/atom: 2000, page size: 100000
  master list distance cutoff = 26.9
  ghost atom cutoff = 26.9
  binsize = 13.45, bins = 45 45 53
  1 neighbor lists, perpetual/occasional/extra = 1 0 0
  (1) pair lj/cut, perpetual
      attributes: half, newton on
      pair build: half/bin/newton
      stencil: half/bin/3d/newton
      bin: standard
Setting up cg style minimization ...
  Unit style    : real
  Current step  : 0
Per MPI rank memory allocation (min/avg/max) = 9.917 | 10.1 | 10.56 Mbytes
Step Temp E_pair E_mol TotEng Press 
       0            0   -7616.8962    8835.2726    1218.3764   -1.2884819 
     642            0   -12408.493    3598.8133   -8809.6794  -0.74698059 
Loop time of 0.578831 on 16 procs for 642 steps with 10000 atoms

99.5% CPU use with 16 MPI tasks x no OpenMP threads

Minimization stats:
  Stopping criterion = energy tolerance
  Energy initial, next-to-last, final = 
         1218.37640346     -8808.82640153     -8809.67938131
  Force two-norm initial, final = 307.581 3.61234
  Force max component initial, final = 10.2442 0.472665
  Final line search alpha, max atom move = 0.428559 0.202565
  Iterations, force evaluations = 642 880

MPI task timing breakdown:
Section |  min time  |  avg time  |  max time  |%varavg| %total
---------------------------------------------------------------
Pair    | 0.072661   | 0.21238    | 0.39429    |  19.7 | 36.69
Bond    | 0.0097816  | 0.021085   | 0.036518   |   5.6 |  3.64
Neigh   | 0.082977   | 0.083344   | 0.083942   |   0.1 | 14.40
Comm    | 0.031093   | 0.21389    | 0.38012    |  20.0 | 36.95
Output  | 0          | 0          | 0          |   0.0 |  0.00
Modify  | 0          | 0          | 0          |   0.0 |  0.00
Other   |            | 0.04814    |            |       |  8.32

Nlocal:    625 ave 1123 max 264 min
Histogram: 4 1 1 0 4 1 3 0 0 2
Nghost:    770 ave 939 max 608 min
Histogram: 2 2 3 0 0 1 2 3 1 2
Neighs:    14577.4 ave 27651 max 4635 min
Histogram: 3 1 2 1 2 3 2 0 1 1

Total # of neighbors = 233238
Ave neighs/atom = 23.3238
Ave special neighs/atom = 7.3188
Neighbor list builds = 54
Dangerous builds = 0
Setting up Verlet run ...
  Unit style    : real
  Current step  : 642
  Time step     : 0.1
Per MPI rank memory allocation (min/avg/max) = 8.793 | 8.979 | 9.44 Mbytes
Step Temp E_pair E_mol TotEng Press 
     642            0   -12408.493    3598.8133   -8809.6794  -0.74698059 
    1642    101.47257   -12403.057    3616.4109   -5762.2443  -0.20322728 
Loop time of 0.408786 on 16 procs for 1000 steps with 10000 atoms

Performance: 21.136 ns/day, 1.136 hours/ns, 2446.270 timesteps/s
99.5% CPU use with 16 MPI tasks x no OpenMP threads

MPI task timing breakdown:
Section |  min time  |  avg time  |  max time  |%varavg| %total
---------------------------------------------------------------
Pair    | 0.046085   | 0.14633    | 0.27876    |  16.9 | 35.80
Bond    | 0.0083774  | 0.019378   | 0.0339     |   5.6 |  4.74
Neigh   | 0          | 0          | 0          |   0.0 |  0.00
Comm    | 0.035126   | 0.17122    | 0.29299    |  16.4 | 41.89
Output  | 4.189e-05  | 7.1394e-05 | 0.00012959 |   0.0 |  0.02
Modify  | 0.012016   | 0.02852    | 0.050028   |   6.9 |  6.98
Other   |            | 0.04327    |            |       | 10.59

Nlocal:    625 ave 1123 max 264 min
Histogram: 4 1 1 0 4 1 3 0 0 2
Nghost:    770.875 ave 942 max 608 min
Histogram: 2 2 3 0 1 0 2 3 1 2
Neighs:    14600.4 ave 27694 max 4622 min
Histogram: 3 1 2 1 2 3 2 0 1 1

Total # of neighbors = 233606
Ave neighs/atom = 23.3606
Ave special neighs/atom = 7.3188
Neighbor list builds = 0
Dangerous builds = 0
2000 atoms in group rxnSites
Neighbor list info ...
  update every 1 steps, delay 1 steps, check yes
  max neighbors/atom: 2000, page size: 100000
  master list distance cutoff = 26.9
  ghost atom cutoff = 26.9
  binsize = 13.45, bins = 45 45 53
  2 neighbor lists, perpetual/occasional/extra = 1 1 0
  (1) pair lj/cut, perpetual
      attributes: half, newton on
      pair build: half/bin/newton
      stencil: half/bin/3d/newton
      bin: standard
  (2) fix bond/create/random, occasional, copy from (1)
      attributes: half, newton on
      pair build: copy
      stencil: none
      bin: none
Setting up Verlet run ...
  Unit style    : real
  Current step  : 0
  Time step     : 25
colvars: Creating proxy instance
colvars: ----------------------------------------------------------------------
colvars: Initializing the collective variables module, version "2019-04-26".
colvars: Please cite Fiorin et al, Mol Phys 2013:
colvars:  http://dx.doi.org/10.1080/00268976.2013.813594
colvars: in any publication based on this calculation.
colvars: Using LAMMPS interface, version "2019-04-09".
colvars: ----------------------------------------------------------------------
colvars: Reading new configuration from file "TCC_N400_ID_300A.colvars":
colvars: # smp = on [default]
colvars: # colvarsTrajFrequency = 50000
colvars: # colvarsRestartFrequency = 50000
colvars: # scriptedColvarForces = off [default]
colvars: # scriptingAfterBiases = off [default]
colvars: ----------------------------------------------------------------------
colvars:   Initializing a new collective variable.
colvars:   # name = "dist"
colvars:   Initializing a new "distance" component.
colvars:     # name = "" [default]
colvars:     # componentCoeff = 1 [default]
colvars:     # componentExp = 1 [default]
colvars:     # period = 0 [default]
colvars:     # wrapAround = 0 [default]
colvars:     # forceNoPBC = off [default]
colvars:     # scalable = on [default]
colvars:       Initializing atom group "group1".
colvars:       # name = "" [default]
colvars:       # centerReference = off [default]
colvars:       # rotateReference = off [default]
colvars:       # atomsOfGroup = "" [default]
colvars:       # indexGroup = "" [default]
colvars:       # psfSegID =  [default]
colvars:       # atomsFile = "" [default]
colvars:       # dummyAtom = ( 0 , 0 , 0 ) [default]
colvars:       # enableForces = on [default]
colvars:       # enableFitGradients = on [default]
colvars:       # printAtomIDs = off [default]
colvars:       Atom group "group1" defined with 200 atoms requested.
colvars:       Initializing atom group "group2".
colvars:       # name = "" [default]
colvars:       # centerReference = off [default]
colvars:       # rotateReference = off [default]
colvars:       # atomsOfGroup = "" [default]
colvars:       # indexGroup = "" [default]
colvars:       # psfSegID =  [default]
colvars:       # atomsFile = "" [default]
colvars:       # dummyAtom = ( 0 , 0 , 0 ) [default]
colvars:       # enableForces = on [default]
colvars:       # enableFitGradients = on [default]
colvars:       # printAtomIDs = off [default]
colvars:       Atom group "group2" defined with 200 atoms requested.
colvars:     # oneSiteSystemForce = off [default]
colvars:     # oneSiteTotalForce = off [default]
colvars:   All components initialized.
colvars:   # timeStepFactor = 1 [default]
colvars:   # width = 1 [default]
colvars:   # lowerBoundary = 0
colvars:   # upperBoundary = 310
colvars:   # hardLowerBoundary = off [default]
colvars:   # hardUpperBoundary = off [default]
colvars:   # expandBoundaries = off [default]
colvars:   # extendedLagrangian = off [default]
colvars:   # outputValue = on [default]
colvars:   # outputVelocity = off [default]
colvars:   # outputTotalForce = off [default]
colvars:   # outputAppliedForce = off [default]
colvars:   # subtractAppliedForce = off [default]
colvars:   # runAve = off [default]
colvars:   # corrFunc = off [default]
colvars: ----------------------------------------------------------------------
colvars: Collective variables initialized, 1 in total.
colvars: ----------------------------------------------------------------------
colvars:   Initializing a new "harmonicwalls" instance.
colvars:   # name = "wall_dist"
colvars:   # colvars = { dist }
colvars:   # outputEnergy = off [default]
colvars:   # timeStepFactor = 1 [default]
colvars:   # writeTISamples = off [default]
colvars:   # writeTIPMF = off [default]
colvars:   # forceConstant = 1 [default]
colvars:   # targetForceConstant = -1 [default]
colvars:   # lowerWalls = { 0 } [default]
colvars:   Lower walls were not provided.
colvars:   # upperWalls = { 305 }
colvars:   # upperWallConstant = 20
colvars:   The upper wall force constant for colvar "dist" will be rescaled to 20 according to the specified width (1).
colvars: ----------------------------------------------------------------------
colvars:   Initializing a new "metadynamics" instance.
colvars:   # name = "Mtd_dist"
colvars:   # colvars = { dist }
colvars:   # outputEnergy = off [default]
colvars:   # timeStepFactor = 1 [default]
colvars:   # writeTISamples = off [default]
colvars:   # writeTIPMF = off [default]
colvars:   # hillWeight = 0.2
colvars:   # newHillFrequency = 500
colvars:   # hillWidth = 1
colvars:   Half-widths of the Gaussian hills (sigma's):
colvars:   dist: 0.5
colvars:   # multipleReplicas = off [default]
colvars:   # useGrids = on [default]
colvars:   # gridsUpdateFrequency = 500 [default]
colvars:   # rebinGrids = off [default]
colvars:   # keepHills = off [default]
colvars:   # writeFreeEnergyFile = on [default]
colvars:   # keepFreeEnergyFiles = off [default]
colvars:   # writeHillsTrajectory = on
colvars:   # wellTempered = on
colvars:   # biasTemperature = 310
colvars:   Well-tempered metadynamics is used.
colvars:   The bias temperature is 310.
colvars:   # ebMeta = off [default]
colvars: ----------------------------------------------------------------------
colvars: Collective variables biases initialized, 2 in total.
colvars: ----------------------------------------------------------------------
colvars: Collective variables module (re)initialized.
colvars: ----------------------------------------------------------------------
colvars: The restart output state file will be "rest.colvars.state".
colvars: The final output state file will be "Run5_Fusion_Es_3kT_Ens_05kT.colvars.state".
colvars: Writing to colvar trajectory file "Run5_Fusion_Es_3kT_Ens_05kT.colvars.traj".
colvars: Re-initialized atom group for variable "dist":0/0. 200 atoms: total mass = 200000, total charge = 0.
colvars: Re-initialized atom group for variable "dist":0/1. 200 atoms: total mass = 200000, total charge = 0.
Per MPI rank memory allocation (min/avg/max) = 10.95 | 11.34 | 11.91 Mbytes
Step E_pair PotEng KinEng E_bond E_angle Temp Bonds 
       0   -12403.057   -8786.6465    3024.4022    239.67896     3376.732    101.47257    10502 
colvars: Synchronizing (emptying the buffer of) trajectory file "Run5_Fusion_Es_3kT_Ens_05kT.colvars.traj".
colvars: Saving collective variables state to "rest.colvars.state".
colvars: Synchronizing (emptying the buffer of) trajectory file "Run5_Fusion_Es_3kT_Ens_05kT.colvars.traj".
colvars: Saving collective variables state to "rest.colvars.state".
colvars: Synchronizing (emptying the buffer of) trajectory file "Run5_Fusion_Es_3kT_Ens_05kT.colvars.traj".
colvars: Saving collective variables state to "rest.colvars.state".
colvars: Synchronizing (emptying the buffer of) trajectory file "Run5_Fusion_Es_3kT_Ens_05kT.colvars.traj".
colvars: Saving collective variables state to "rest.colvars.state".
colvars: Synchronizing (emptying the buffer of) trajectory file "Run5_Fusion_Es_3kT_Ens_05kT.colvars.traj".
colvars: Saving collective variables state to "rest.colvars.state".
colvars: Synchronizing (emptying the buffer of) trajectory file "Run5_Fusion_Es_3kT_Ens_05kT.colvars.traj".
colvars: Saving collective variables state to "rest.colvars.state".
colvars: Synchronizing (emptying the buffer of) trajectory file "Run5_Fusion_Es_3kT_Ens_05kT.colvars.traj".
colvars: Saving collective variables state to "rest.colvars.state".
colvars: Synchronizing (emptying the buffer of) trajectory file "Run5_Fusion_Es_3kT_Ens_05kT.colvars.traj".
colvars: Saving collective variables state to "rest.colvars.state".
colvars: Synchronizing (emptying the buffer of) trajectory file "Run5_Fusion_Es_3kT_Ens_05kT.colvars.traj".
colvars: Saving collective variables state to "rest.colvars.state".
colvars: Synchronizing (emptying the buffer of) trajectory file "Run5_Fusion_Es_3kT_Ens_05kT.colvars.traj".
colvars: Saving collective variables state to "rest.colvars.state".
colvars: Synchronizing (emptying the buffer of) trajectory file "Run5_Fusion_Es_3kT_Ens_05kT.colvars.traj".
colvars: Saving collective variables state to "rest.colvars.state".
colvars: Synchronizing (emptying the buffer of) trajectory file "Run5_Fusion_Es_3kT_Ens_05kT.colvars.traj".
colvars: Saving collective variables state to "rest.colvars.state".
colvars: Synchronizing (emptying the buffer of) trajectory file "Run5_Fusion_Es_3kT_Ens_05kT.colvars.traj".
colvars: Saving collective variables state to "rest.colvars.state".
colvars: Synchronizing (emptying the buffer of) trajectory file "Run5_Fusion_Es_3kT_Ens_05kT.colvars.traj".
colvars: Saving collective variables state to "rest.colvars.state".
colvars: Synchronizing (emptying the buffer of) trajectory file "Run5_Fusion_Es_3kT_Ens_05kT.colvars.traj".
colvars: Saving collective variables state to "rest.colvars.state".
colvars: Synchronizing (emptying the buffer of) trajectory file "Run5_Fusion_Es_3kT_Ens_05kT.colvars.traj".
colvars: Saving collective variables state to "rest.colvars.state".
colvars: Synchronizing (emptying the buffer of) trajectory file "Run5_Fusion_Es_3kT_Ens_05kT.colvars.traj".
colvars: Saving collective variables state to "rest.colvars.state".
colvars: Synchronizing (emptying the buffer of) trajectory file "Run5_Fusion_Es_3kT_Ens_05kT.colvars.traj".
colvars: Saving collective variables state to "rest.colvars.state".
colvars: Synchronizing (emptying the buffer of) trajectory file "Run5_Fusion_Es_3kT_Ens_05kT.colvars.traj".
colvars: Saving collective variables state to "rest.colvars.state".
colvars: Synchronizing (emptying the buffer of) trajectory file "Run5_Fusion_Es_3kT_Ens_05kT.colvars.traj".
colvars: Saving collective variables state to "rest.colvars.state".
 1000000   -7615.4291    1238.5682    9347.7119    3114.2778    5739.7195    313.62773    10504 
colvars: Synchronizing (emptying the buffer of) trajectory file "Run5_Fusion_Es_3kT_Ens_05kT.colvars.traj".
colvars: Saving collective variables state to "rest.colvars.state".
colvars: Synchronizing (emptying the buffer of) trajectory file "Run5_Fusion_Es_3kT_Ens_05kT.colvars.traj".
colvars: Saving collective variables state to "rest.colvars.state".
colvars: Synchronizing (emptying the buffer of) trajectory file "Run5_Fusion_Es_3kT_Ens_05kT.colvars.traj".
colvars: Saving collective variables state to "rest.colvars.state".
colvars: Synchronizing (emptying the buffer of) trajectory file "Run5_Fusion_Es_3kT_Ens_05kT.colvars.traj".
colvars: Saving collective variables state to "rest.colvars.state".
colvars: Synchronizing (emptying the buffer of) trajectory file "Run5_Fusion_Es_3kT_Ens_05kT.colvars.traj".
colvars: Saving collective variables state to "rest.colvars.state".
colvars: Synchronizing (emptying the buffer of) trajectory file "Run5_Fusion_Es_3kT_Ens_05kT.colvars.traj".
colvars: Saving collective variables state to "rest.colvars.state".
colvars: Synchronizing (emptying the buffer of) trajectory file "Run5_Fusion_Es_3kT_Ens_05kT.colvars.traj".
colvars: Saving collective variables state to "rest.colvars.state".
colvars: Synchronizing (emptying the buffer of) trajectory file "Run5_Fusion_Es_3kT_Ens_05kT.colvars.traj".
colvars: Saving collective variables state to "rest.colvars.state".
colvars: Synchronizing (emptying the buffer of) trajectory file "Run5_Fusion_Es_3kT_Ens_05kT.colvars.traj".
colvars: Saving collective variables state to "rest.colvars.state".
colvars: Synchronizing (emptying the buffer of) trajectory file "Run5_Fusion_Es_3kT_Ens_05kT.colvars.traj".
colvars: Saving collective variables state to "rest.colvars.state".
colvars: Synchronizing (emptying the buffer of) trajectory file "Run5_Fusion_Es_3kT_Ens_05kT.colvars.traj".
colvars: Saving collective variables state to "rest.colvars.state".
colvars: Synchronizing (emptying the buffer of) trajectory file "Run5_Fusion_Es_3kT_Ens_05kT.colvars.traj".
colvars: Saving collective variables state to "rest.colvars.state".
colvars: Synchronizing (emptying the buffer of) trajectory file "Run5_Fusion_Es_3kT_Ens_05kT.colvars.traj".
colvars: Saving collective variables state to "rest.colvars.state".
colvars: Synchronizing (emptying the buffer of) trajectory file "Run5_Fusion_Es_3kT_Ens_05kT.colvars.traj".
colvars: Saving collective variables state to "rest.colvars.state".
colvars: Synchronizing (emptying the buffer of) trajectory file "Run5_Fusion_Es_3kT_Ens_05kT.colvars.traj".
colvars: Saving collective variables state to "rest.colvars.state".
colvars: Synchronizing (emptying the buffer of) trajectory file "Run5_Fusion_Es_3kT_Ens_05kT.colvars.traj".
colvars: Saving collective variables state to "rest.colvars.state".
colvars: Synchronizing (emptying the buffer of) trajectory file "Run5_Fusion_Es_3kT_Ens_05kT.colvars.traj".
colvars: Saving collective variables state to "rest.colvars.state".
colvars: Synchronizing (emptying the buffer of) trajectory file "Run5_Fusion_Es_3kT_Ens_05kT.colvars.traj".
colvars: Saving collective variables state to "rest.colvars.state".
colvars: Synchronizing (emptying the buffer of) trajectory file "Run5_Fusion_Es_3kT_Ens_05kT.colvars.traj".
colvars: Saving collective variables state to "rest.colvars.state".
colvars: Synchronizing (emptying the buffer of) trajectory file "Run5_Fusion_Es_3kT_Ens_05kT.colvars.traj".
colvars: Saving collective variables state to "rest.colvars.state".
 2000000   -7452.8223    1416.0573    9205.6492    3085.3543    5783.5253    308.86134    10506 
colvars: Synchronizing (emptying the buffer of) trajectory file "Run5_Fusion_Es_3kT_Ens_05kT.colvars.traj".
colvars: Saving collective variables state to "rest.colvars.state".
colvars: Synchronizing (emptying the buffer of) trajectory file "Run5_Fusion_Es_3kT_Ens_05kT.colvars.traj".
colvars: Saving collective variables state to "rest.colvars.state".
colvars: Synchronizing (emptying the buffer of) trajectory file "Run5_Fusion_Es_3kT_Ens_05kT.colvars.traj".
colvars: Saving collective variables state to "rest.colvars.state".
colvars: Synchronizing (emptying the buffer of) trajectory file "Run5_Fusion_Es_3kT_Ens_05kT.colvars.traj".
colvars: Saving collective variables state to "rest.colvars.state".
colvars: Synchronizing (emptying the buffer of) trajectory file "Run5_Fusion_Es_3kT_Ens_05kT.colvars.traj".
colvars: Saving collective variables state to "rest.colvars.state".
colvars: Synchronizing (emptying the buffer of) trajectory file "Run5_Fusion_Es_3kT_Ens_05kT.colvars.traj".
colvars: Saving collective variables state to "rest.colvars.state".
colvars: Synchronizing (emptying the buffer of) trajectory file "Run5_Fusion_Es_3kT_Ens_05kT.colvars.traj".
colvars: Saving collective variables state to "rest.colvars.state".
colvars: Synchronizing (emptying the buffer of) trajectory file "Run5_Fusion_Es_3kT_Ens_05kT.colvars.traj".
colvars: Saving collective variables state to "rest.colvars.state".
colvars: Synchronizing (emptying the buffer of) trajectory file "Run5_Fusion_Es_3kT_Ens_05kT.colvars.traj".
colvars: Saving collective variables state to "rest.colvars.state".
colvars: Synchronizing (emptying the buffer of) trajectory file "Run5_Fusion_Es_3kT_Ens_05kT.colvars.traj".
colvars: Saving collective variables state to "rest.colvars.state".
colvars: Synchronizing (emptying the buffer of) trajectory file "Run5_Fusion_Es_3kT_Ens_05kT.colvars.traj".
colvars: Saving collective variables state to "rest.colvars.state".
colvars: Synchronizing (emptying the buffer of) trajectory file "Run5_Fusion_Es_3kT_Ens_05kT.colvars.traj".
colvars: Saving collective variables state to "rest.colvars.state".
colvars: Synchronizing (emptying the buffer of) trajectory file "Run5_Fusion_Es_3kT_Ens_05kT.colvars.traj".
colvars: Saving collective variables state to "rest.colvars.state".
colvars: Synchronizing (emptying the buffer of) trajectory file "Run5_Fusion_Es_3kT_Ens_05kT.colvars.traj".
colvars: Saving collective variables state to "rest.colvars.state".
colvars: Synchronizing (emptying the buffer of) trajectory file "Run5_Fusion_Es_3kT_Ens_05kT.colvars.traj".
colvars: Saving collective variables state to "rest.colvars.state".
colvars: Synchronizing (emptying the buffer of) trajectory file "Run5_Fusion_Es_3kT_Ens_05kT.colvars.traj".
colvars: Saving collective variables state to "rest.colvars.state".
colvars: Synchronizing (emptying the buffer of) trajectory file "Run5_Fusion_Es_3kT_Ens_05kT.colvars.traj".
colvars: Saving collective variables state to "rest.colvars.state".
colvars: Synchronizing (emptying the buffer of) trajectory file "Run5_Fusion_Es_3kT_Ens_05kT.colvars.traj".
colvars: Saving collective variables state to "rest.colvars.state".
colvars: Synchronizing (emptying the buffer of) trajectory file "Run5_Fusion_Es_3kT_Ens_05kT.colvars.traj".
colvars: Saving collective variables state to "rest.colvars.state".
colvars: Synchronizing (emptying the buffer of) trajectory file "Run5_Fusion_Es_3kT_Ens_05kT.colvars.traj".
colvars: Saving collective variables state to "rest.colvars.state".
 3000000   -7544.8266    1308.3667    9281.4181    3111.6765    5741.5168    311.40348    10514 
colvars: Synchronizing (emptying the buffer of) trajectory file "Run5_Fusion_Es_3kT_Ens_05kT.colvars.traj".
colvars: Saving collective variables state to "rest.colvars.state".
colvars: Synchronizing (emptying the buffer of) trajectory file "Run5_Fusion_Es_3kT_Ens_05kT.colvars.traj".
colvars: Saving collective variables state to "rest.colvars.state".
colvars: Synchronizing (emptying the buffer of) trajectory file "Run5_Fusion_Es_3kT_Ens_05kT.colvars.traj".
colvars: Saving collective variables state to "rest.colvars.state".
colvars: Synchronizing (emptying the buffer of) trajectory file "Run5_Fusion_Es_3kT_Ens_05kT.colvars.traj".
colvars: Saving collective variables state to "rest.colvars.state".
colvars: Synchronizing (emptying the buffer of) trajectory file "Run5_Fusion_Es_3kT_Ens_05kT.colvars.traj".
colvars: Saving collective variables state to "rest.colvars.state".
colvars: Synchronizing (emptying the buffer of) trajectory file "Run5_Fusion_Es_3kT_Ens_05kT.colvars.traj".
colvars: Saving collective variables state to "rest.colvars.state".
colvars: Synchronizing (emptying the buffer of) trajectory file "Run5_Fusion_Es_3kT_Ens_05kT.colvars.traj".
colvars: Saving collective variables state to "rest.colvars.state".
colvars: Synchronizing (emptying the buffer of) trajectory file "Run5_Fusion_Es_3kT_Ens_05kT.colvars.traj".
colvars: Saving collective variables state to "rest.colvars.state".
colvars: Synchronizing (emptying the buffer of) trajectory file "Run5_Fusion_Es_3kT_Ens_05kT.colvars.traj".
colvars: Saving collective variables state to "rest.colvars.state".
colvars: Synchronizing (emptying the buffer of) trajectory file "Run5_Fusion_Es_3kT_Ens_05kT.colvars.traj".
colvars: Saving collective variables state to "rest.colvars.state".
colvars: Synchronizing (emptying the buffer of) trajectory file "Run5_Fusion_Es_3kT_Ens_05kT.colvars.traj".
colvars: Saving collective variables state to "rest.colvars.state".
colvars: Synchronizing (emptying the buffer of) trajectory file "Run5_Fusion_Es_3kT_Ens_05kT.colvars.traj".
colvars: Saving collective variables state to "rest.colvars.state".
colvars: Synchronizing (emptying the buffer of) trajectory file "Run5_Fusion_Es_3kT_Ens_05kT.colvars.traj".
colvars: Saving collective variables state to "rest.colvars.state".
colvars: Synchronizing (emptying the buffer of) trajectory file "Run5_Fusion_Es_3kT_Ens_05kT.colvars.traj".
colvars: Saving collective variables state to "rest.colvars.state".
colvars: Synchronizing (emptying the buffer of) trajectory file "Run5_Fusion_Es_3kT_Ens_05kT.colvars.traj".
colvars: Saving collective variables state to "rest.colvars.state".
colvars: Synchronizing (emptying the buffer of) trajectory file "Run5_Fusion_Es_3kT_Ens_05kT.colvars.traj".
colvars: Saving collective variables state to "rest.colvars.state".
colvars: Synchronizing (emptying the buffer of) trajectory file "Run5_Fusion_Es_3kT_Ens_05kT.colvars.traj".
colvars: Saving collective variables state to "rest.colvars.state".
colvars: Synchronizing (emptying the buffer of) trajectory file "Run5_Fusion_Es_3kT_Ens_05kT.colvars.traj".
colvars: Saving collective variables state to "rest.colvars.state".
colvars: Synchronizing (emptying the buffer of) trajectory file "Run5_Fusion_Es_3kT_Ens_05kT.colvars.traj".
colvars: Saving collective variables state to "rest.colvars.state".
colvars: Synchronizing (emptying the buffer of) trajectory file "Run5_Fusion_Es_3kT_Ens_05kT.colvars.traj".
colvars: Saving collective variables state to "rest.colvars.state".
 4000000   -7668.1513    1118.9777    9198.5574    3092.1669    5694.9622     308.6234    10504 
colvars: Synchronizing (emptying the buffer of) trajectory file "Run5_Fusion_Es_3kT_Ens_05kT.colvars.traj".
colvars: Saving collective variables state to "rest.colvars.state".
colvars: Synchronizing (emptying the buffer of) trajectory file "Run5_Fusion_Es_3kT_Ens_05kT.colvars.traj".
colvars: Saving collective variables state to "rest.colvars.state".
colvars: Synchronizing (emptying the buffer of) trajectory file "Run5_Fusion_Es_3kT_Ens_05kT.colvars.traj".
colvars: Saving collective variables state to "rest.colvars.state".
colvars: Synchronizing (emptying the buffer of) trajectory file "Run5_Fusion_Es_3kT_Ens_05kT.colvars.traj".
colvars: Saving collective variables state to "rest.colvars.state".
colvars: Synchronizing (emptying the buffer of) trajectory file "Run5_Fusion_Es_3kT_Ens_05kT.colvars.traj".
colvars: Saving collective variables state to "rest.colvars.state".
colvars: Synchronizing (emptying the buffer of) trajectory file "Run5_Fusion_Es_3kT_Ens_05kT.colvars.traj".
colvars: Saving collective variables state to "rest.colvars.state".
colvars: Synchronizing (emptying the buffer of) trajectory file "Run5_Fusion_Es_3kT_Ens_05kT.colvars.traj".
colvars: Saving collective variables state to "rest.colvars.state".
colvars: Synchronizing (emptying the buffer of) trajectory file "Run5_Fusion_Es_3kT_Ens_05kT.colvars.traj".
colvars: Saving collective variables state to "rest.colvars.state".
colvars: Synchronizing (emptying the buffer of) trajectory file "Run5_Fusion_Es_3kT_Ens_05kT.colvars.traj".
colvars: Saving collective variables state to "rest.colvars.state".
colvars: Synchronizing (emptying the buffer of) trajectory file "Run5_Fusion_Es_3kT_Ens_05kT.colvars.traj".
colvars: Saving collective variables state to "rest.colvars.state".
colvars: Synchronizing (emptying the buffer of) trajectory file "Run5_Fusion_Es_3kT_Ens_05kT.colvars.traj".
colvars: Saving collective variables state to "rest.colvars.state".
colvars: Synchronizing (emptying the buffer of) trajectory file "Run5_Fusion_Es_3kT_Ens_05kT.colvars.traj".
colvars: Saving collective variables state to "rest.colvars.state".
colvars: Synchronizing (emptying the buffer of) trajectory file "Run5_Fusion_Es_3kT_Ens_05kT.colvars.traj".
colvars: Saving collective variables state to "rest.colvars.state".
colvars: Synchronizing (emptying the buffer of) trajectory file "Run5_Fusion_Es_3kT_Ens_05kT.colvars.traj".
colvars: Saving collective variables state to "rest.colvars.state".
colvars: Synchronizing (emptying the buffer of) trajectory file "Run5_Fusion_Es_3kT_Ens_05kT.colvars.traj".
colvars: Saving collective variables state to "rest.colvars.state".
colvars: Synchronizing (emptying the buffer of) trajectory file "Run5_Fusion_Es_3kT_Ens_05kT.colvars.traj".
colvars: Saving collective variables state to "rest.colvars.state".
colvars: Synchronizing (emptying the buffer of) trajectory file "Run5_Fusion_Es_3kT_Ens_05kT.colvars.traj".
colvars: Saving collective variables state to "rest.colvars.state".
colvars: Synchronizing (emptying the buffer of) trajectory file "Run5_Fusion_Es_3kT_Ens_05kT.colvars.traj".
colvars: Saving collective variables state to "rest.colvars.state".
colvars: Synchronizing (emptying the buffer of) trajectory file "Run5_Fusion_Es_3kT_Ens_05kT.colvars.traj".
colvars: Saving collective variables state to "rest.colvars.state".
colvars: Synchronizing (emptying the buffer of) trajectory file "Run5_Fusion_Es_3kT_Ens_05kT.colvars.traj".
colvars: Saving collective variables state to "rest.colvars.state".
 5000000   -7539.3268    1187.3779    9324.1976    3073.6895    5653.0151    312.83879    10511 
colvars: Synchronizing (emptying the buffer of) trajectory file "Run5_Fusion_Es_3kT_Ens_05kT.colvars.traj".
colvars: Saving collective variables state to "rest.colvars.state".
colvars: Synchronizing (emptying the buffer of) trajectory file "Run5_Fusion_Es_3kT_Ens_05kT.colvars.traj".
colvars: Saving collective variables state to "rest.colvars.state".
colvars: Synchronizing (emptying the buffer of) trajectory file "Run5_Fusion_Es_3kT_Ens_05kT.colvars.traj".
colvars: Saving collective variables state to "rest.colvars.state".
colvars: Synchronizing (emptying the buffer of) trajectory file "Run5_Fusion_Es_3kT_Ens_05kT.colvars.traj".
colvars: Saving collective variables state to "rest.colvars.state".
colvars: Synchronizing (emptying the buffer of) trajectory file "Run5_Fusion_Es_3kT_Ens_05kT.colvars.traj".
colvars: Saving collective variables state to "rest.colvars.state".
colvars: Synchronizing (emptying the buffer of) trajectory file "Run5_Fusion_Es_3kT_Ens_05kT.colvars.traj".
colvars: Saving collective variables state to "rest.colvars.state".
colvars: Synchronizing (emptying the buffer of) trajectory file "Run5_Fusion_Es_3kT_Ens_05kT.colvars.traj".
colvars: Saving collective variables state to "rest.colvars.state".
colvars: Synchronizing (emptying the buffer of) trajectory file "Run5_Fusion_Es_3kT_Ens_05kT.colvars.traj".
colvars: Saving collective variables state to "rest.colvars.state".
colvars: Synchronizing (emptying the buffer of) trajectory file "Run5_Fusion_Es_3kT_Ens_05kT.colvars.traj".
colvars: Saving collective variables state to "rest.colvars.state".
colvars: Synchronizing (emptying the buffer of) trajectory file "Run5_Fusion_Es_3kT_Ens_05kT.colvars.traj".
colvars: Saving collective variables state to "rest.colvars.state".
colvars: Synchronizing (emptying the buffer of) trajectory file "Run5_Fusion_Es_3kT_Ens_05kT.colvars.traj".
colvars: Saving collective variables state to "rest.colvars.state".
colvars: Synchronizing (emptying the buffer of) trajectory file "Run5_Fusion_Es_3kT_Ens_05kT.colvars.traj".
colvars: Saving collective variables state to "rest.colvars.state".
colvars: Synchronizing (emptying the buffer of) trajectory file "Run5_Fusion_Es_3kT_Ens_05kT.colvars.traj".
colvars: Saving collective variables state to "rest.colvars.state".
colvars: Synchronizing (emptying the buffer of) trajectory file "Run5_Fusion_Es_3kT_Ens_05kT.colvars.traj".
colvars: Saving collective variables state to "rest.colvars.state".
colvars: Synchronizing (emptying the buffer of) trajectory file "Run5_Fusion_Es_3kT_Ens_05kT.colvars.traj".
colvars: Saving collective variables state to "rest.colvars.state".
colvars: Synchronizing (emptying the buffer of) trajectory file "Run5_Fusion_Es_3kT_Ens_05kT.colvars.traj".
colvars: Saving collective variables state to "rest.colvars.state".
colvars: Synchronizing (emptying the buffer of) trajectory file "Run5_Fusion_Es_3kT_Ens_05kT.colvars.traj".
colvars: Saving collective variables state to "rest.colvars.state".
colvars: Synchronizing (emptying the buffer of) trajectory file "Run5_Fusion_Es_3kT_Ens_05kT.colvars.traj".
colvars: Saving collective variables state to "rest.colvars.state".
colvars: Synchronizing (emptying the buffer of) trajectory file "Run5_Fusion_Es_3kT_Ens_05kT.colvars.traj".
colvars: Saving collective variables state to "rest.colvars.state".
colvars: Synchronizing (emptying the buffer of) trajectory file "Run5_Fusion_Es_3kT_Ens_05kT.colvars.traj".
colvars: Saving collective variables state to "rest.colvars.state".
 6000000   -7523.9706     1275.705    9349.1741    3090.7816     5708.894    313.67678    10510 
colvars: Synchronizing (emptying the buffer of) trajectory file "Run5_Fusion_Es_3kT_Ens_05kT.colvars.traj".
colvars: Saving collective variables state to "rest.colvars.state".
colvars: Synchronizing (emptying the buffer of) trajectory file "Run5_Fusion_Es_3kT_Ens_05kT.colvars.traj".
colvars: Saving collective variables state to "rest.colvars.state".
colvars: Synchronizing (emptying the buffer of) trajectory file "Run5_Fusion_Es_3kT_Ens_05kT.colvars.traj".
colvars: Saving collective variables state to "rest.colvars.state".
colvars: Synchronizing (emptying the buffer of) trajectory file "Run5_Fusion_Es_3kT_Ens_05kT.colvars.traj".
colvars: Saving collective variables state to "rest.colvars.state".
colvars: Synchronizing (emptying the buffer of) trajectory file "Run5_Fusion_Es_3kT_Ens_05kT.colvars.traj".
colvars: Saving collective variables state to "rest.colvars.state".
colvars: Synchronizing (emptying the buffer of) trajectory file "Run5_Fusion_Es_3kT_Ens_05kT.colvars.traj".
colvars: Saving collective variables state to "rest.colvars.state".
colvars: Synchronizing (emptying the buffer of) trajectory file "Run5_Fusion_Es_3kT_Ens_05kT.colvars.traj".
colvars: Saving collective variables state to "rest.colvars.state".
colvars: Synchronizing (emptying the buffer of) trajectory file "Run5_Fusion_Es_3kT_Ens_05kT.colvars.traj".
colvars: Saving collective variables state to "rest.colvars.state".
colvars: Synchronizing (emptying the buffer of) trajectory file "Run5_Fusion_Es_3kT_Ens_05kT.colvars.traj".
colvars: Saving collective variables state to "rest.colvars.state".
colvars: Synchronizing (emptying the buffer of) trajectory file "Run5_Fusion_Es_3kT_Ens_05kT.colvars.traj".
colvars: Saving collective variables state to "rest.colvars.state".
colvars: Synchronizing (emptying the buffer of) trajectory file "Run5_Fusion_Es_3kT_Ens_05kT.colvars.traj".
colvars: Saving collective variables state to "rest.colvars.state".
colvars: Synchronizing (emptying the buffer of) trajectory file "Run5_Fusion_Es_3kT_Ens_05kT.colvars.traj".
colvars: Saving collective variables state to "rest.colvars.state".
colvars: Synchronizing (emptying the buffer of) trajectory file "Run5_Fusion_Es_3kT_Ens_05kT.colvars.traj".
colvars: Saving collective variables state to "rest.colvars.state".
colvars: Synchronizing (emptying the buffer of) trajectory file "Run5_Fusion_Es_3kT_Ens_05kT.colvars.traj".
colvars: Saving collective variables state to "rest.colvars.state".
colvars: Synchronizing (emptying the buffer of) trajectory file "Run5_Fusion_Es_3kT_Ens_05kT.colvars.traj".
colvars: Saving collective variables state to "rest.colvars.state".
colvars: Synchronizing (emptying the buffer of) trajectory file "Run5_Fusion_Es_3kT_Ens_05kT.colvars.traj".
colvars: Saving collective variables state to "rest.colvars.state".
colvars: Synchronizing (emptying the buffer of) trajectory file "Run5_Fusion_Es_3kT_Ens_05kT.colvars.traj".
colvars: Saving collective variables state to "rest.colvars.state".
colvars: Synchronizing (emptying the buffer of) trajectory file "Run5_Fusion_Es_3kT_Ens_05kT.colvars.traj".
colvars: Saving collective variables state to "rest.colvars.state".
colvars: Synchronizing (emptying the buffer of) trajectory file "Run5_Fusion_Es_3kT_Ens_05kT.colvars.traj".
colvars: Saving collective variables state to "rest.colvars.state".
colvars: Synchronizing (emptying the buffer of) trajectory file "Run5_Fusion_Es_3kT_Ens_05kT.colvars.traj".
colvars: Saving collective variables state to "rest.colvars.state".
 7000000   -7491.7556     1221.402    9178.9282     3057.186    5655.9716    307.96482    10507 
colvars: Synchronizing (emptying the buffer of) trajectory file "Run5_Fusion_Es_3kT_Ens_05kT.colvars.traj".
colvars: Saving collective variables state to "rest.colvars.state".
colvars: Synchronizing (emptying the buffer of) trajectory file "Run5_Fusion_Es_3kT_Ens_05kT.colvars.traj".
colvars: Saving collective variables state to "rest.colvars.state".
colvars: Synchronizing (emptying the buffer of) trajectory file "Run5_Fusion_Es_3kT_Ens_05kT.colvars.traj".
colvars: Saving collective variables state to "rest.colvars.state".
colvars: Synchronizing (emptying the buffer of) trajectory file "Run5_Fusion_Es_3kT_Ens_05kT.colvars.traj".
colvars: Saving collective variables state to "rest.colvars.state".
colvars: Synchronizing (emptying the buffer of) trajectory file "Run5_Fusion_Es_3kT_Ens_05kT.colvars.traj".
colvars: Saving collective variables state to "rest.colvars.state".
colvars: Synchronizing (emptying the buffer of) trajectory file "Run5_Fusion_Es_3kT_Ens_05kT.colvars.traj".
colvars: Saving collective variables state to "rest.colvars.state".
colvars: Synchronizing (emptying the buffer of) trajectory file "Run5_Fusion_Es_3kT_Ens_05kT.colvars.traj".
colvars: Saving collective variables state to "rest.colvars.state".
colvars: Synchronizing (emptying the buffer of) trajectory file "Run5_Fusion_Es_3kT_Ens_05kT.colvars.traj".
colvars: Saving collective variables state to "rest.colvars.state".
colvars: Synchronizing (emptying the buffer of) trajectory file "Run5_Fusion_Es_3kT_Ens_05kT.colvars.traj".
colvars: Saving collective variables state to "rest.colvars.state".
colvars: Synchronizing (emptying the buffer of) trajectory file "Run5_Fusion_Es_3kT_Ens_05kT.colvars.traj".
colvars: Saving collective variables state to "rest.colvars.state".
colvars: Synchronizing (emptying the buffer of) trajectory file "Run5_Fusion_Es_3kT_Ens_05kT.colvars.traj".
colvars: Saving collective variables state to "rest.colvars.state".
colvars: Synchronizing (emptying the buffer of) trajectory file "Run5_Fusion_Es_3kT_Ens_05kT.colvars.traj".
colvars: Saving collective variables state to "rest.colvars.state".
colvars: Synchronizing (emptying the buffer of) trajectory file "Run5_Fusion_Es_3kT_Ens_05kT.colvars.traj".
colvars: Saving collective variables state to "rest.colvars.state".
colvars: Synchronizing (emptying the buffer of) trajectory file "Run5_Fusion_Es_3kT_Ens_05kT.colvars.traj".
colvars: Saving collective variables state to "rest.colvars.state".
colvars: Synchronizing (emptying the buffer of) trajectory file "Run5_Fusion_Es_3kT_Ens_05kT.colvars.traj".
colvars: Saving collective variables state to "rest.colvars.state".
colvars: Synchronizing (emptying the buffer of) trajectory file "Run5_Fusion_Es_3kT_Ens_05kT.colvars.traj".
colvars: Saving collective variables state to "rest.colvars.state".
colvars: Synchronizing (emptying the buffer of) trajectory file "Run5_Fusion_Es_3kT_Ens_05kT.colvars.traj".
colvars: Saving collective variables state to "rest.colvars.state".
colvars: Synchronizing (emptying the buffer of) trajectory file "Run5_Fusion_Es_3kT_Ens_05kT.colvars.traj".
colvars: Saving collective variables state to "rest.colvars.state".
colvars: Synchronizing (emptying the buffer of) trajectory file "Run5_Fusion_Es_3kT_Ens_05kT.colvars.traj".
colvars: Saving collective variables state to "rest.colvars.state".
colvars: Synchronizing (emptying the buffer of) trajectory file "Run5_Fusion_Es_3kT_Ens_05kT.colvars.traj".
colvars: Saving collective variables state to "rest.colvars.state".
 8000000   -7800.0381    1009.7126     9152.987    3075.8011    5733.9496    307.09446    10508 
colvars: Synchronizing (emptying the buffer of) trajectory file "Run5_Fusion_Es_3kT_Ens_05kT.colvars.traj".
colvars: Saving collective variables state to "rest.colvars.state".
colvars: Synchronizing (emptying the buffer of) trajectory file "Run5_Fusion_Es_3kT_Ens_05kT.colvars.traj".
colvars: Saving collective variables state to "rest.colvars.state".
colvars: Synchronizing (emptying the buffer of) trajectory file "Run5_Fusion_Es_3kT_Ens_05kT.colvars.traj".
colvars: Saving collective variables state to "rest.colvars.state".
colvars: Synchronizing (emptying the buffer of) trajectory file "Run5_Fusion_Es_3kT_Ens_05kT.colvars.traj".
colvars: Saving collective variables state to "rest.colvars.state".
colvars: Synchronizing (emptying the buffer of) trajectory file "Run5_Fusion_Es_3kT_Ens_05kT.colvars.traj".
colvars: Saving collective variables state to "rest.colvars.state".
colvars: Synchronizing (emptying the buffer of) trajectory file "Run5_Fusion_Es_3kT_Ens_05kT.colvars.traj".
colvars: Saving collective variables state to "rest.colvars.state".
colvars: Synchronizing (emptying the buffer of) trajectory file "Run5_Fusion_Es_3kT_Ens_05kT.colvars.traj".
colvars: Saving collective variables state to "rest.colvars.state".
colvars: Synchronizing (emptying the buffer of) trajectory file "Run5_Fusion_Es_3kT_Ens_05kT.colvars.traj".
colvars: Saving collective variables state to "rest.colvars.state".
colvars: Synchronizing (emptying the buffer of) trajectory file "Run5_Fusion_Es_3kT_Ens_05kT.colvars.traj".
colvars: Saving collective variables state to "rest.colvars.state".
colvars: Synchronizing (emptying the buffer of) trajectory file "Run5_Fusion_Es_3kT_Ens_05kT.colvars.traj".
colvars: Saving collective variables state to "rest.colvars.state".
colvars: Synchronizing (emptying the buffer of) trajectory file "Run5_Fusion_Es_3kT_Ens_05kT.colvars.traj".
colvars: Saving collective variables state to "rest.colvars.state".
colvars: Synchronizing (emptying the buffer of) trajectory file "Run5_Fusion_Es_3kT_Ens_05kT.colvars.traj".
colvars: Saving collective variables state to "rest.colvars.state".
colvars: Synchronizing (emptying the buffer of) trajectory file "Run5_Fusion_Es_3kT_Ens_05kT.colvars.traj".
colvars: Saving collective variables state to "rest.colvars.state".
colvars: Synchronizing (emptying the buffer of) trajectory file "Run5_Fusion_Es_3kT_Ens_05kT.colvars.traj".
colvars: Saving collective variables state to "rest.colvars.state".
colvars: Synchronizing (emptying the buffer of) trajectory file "Run5_Fusion_Es_3kT_Ens_05kT.colvars.traj".
colvars: Saving collective variables state to "rest.colvars.state".
colvars: Synchronizing (emptying the buffer of) trajectory file "Run5_Fusion_Es_3kT_Ens_05kT.colvars.traj".
colvars: Saving collective variables state to "rest.colvars.state".
colvars: Synchronizing (emptying the buffer of) trajectory file "Run5_Fusion_Es_3kT_Ens_05kT.colvars.traj".
colvars: Saving collective variables state to "rest.colvars.state".
colvars: Synchronizing (emptying the buffer of) trajectory file "Run5_Fusion_Es_3kT_Ens_05kT.colvars.traj".
colvars: Saving collective variables state to "rest.colvars.state".
colvars: Synchronizing (emptying the buffer of) trajectory file "Run5_Fusion_Es_3kT_Ens_05kT.colvars.traj".
colvars: Saving collective variables state to "rest.colvars.state".
colvars: Synchronizing (emptying the buffer of) trajectory file "Run5_Fusion_Es_3kT_Ens_05kT.colvars.traj".
colvars: Saving collective variables state to "rest.colvars.state".
 9000000   -7574.2837    1298.0412    9400.8203    3085.6394    5786.6856    315.40958    10510 
colvars: Synchronizing (emptying the buffer of) trajectory file "Run5_Fusion_Es_3kT_Ens_05kT.colvars.traj".
colvars: Saving collective variables state to "rest.colvars.state".
colvars: Synchronizing (emptying the buffer of) trajectory file "Run5_Fusion_Es_3kT_Ens_05kT.colvars.traj".
colvars: Saving collective variables state to "rest.colvars.state".
colvars: Synchronizing (emptying the buffer of) trajectory file "Run5_Fusion_Es_3kT_Ens_05kT.colvars.traj".
colvars: Saving collective variables state to "rest.colvars.state".
colvars: Synchronizing (emptying the buffer of) trajectory file "Run5_Fusion_Es_3kT_Ens_05kT.colvars.traj".
colvars: Saving collective variables state to "rest.colvars.state".
colvars: Synchronizing (emptying the buffer of) trajectory file "Run5_Fusion_Es_3kT_Ens_05kT.colvars.traj".
colvars: Saving collective variables state to "rest.colvars.state".
colvars: Synchronizing (emptying the buffer of) trajectory file "Run5_Fusion_Es_3kT_Ens_05kT.colvars.traj".
colvars: Saving collective variables state to "rest.colvars.state".
colvars: Synchronizing (emptying the buffer of) trajectory file "Run5_Fusion_Es_3kT_Ens_05kT.colvars.traj".
colvars: Saving collective variables state to "rest.colvars.state".
colvars: Synchronizing (emptying the buffer of) trajectory file "Run5_Fusion_Es_3kT_Ens_05kT.colvars.traj".
colvars: Saving collective variables state to "rest.colvars.state".
colvars: Synchronizing (emptying the buffer of) trajectory file "Run5_Fusion_Es_3kT_Ens_05kT.colvars.traj".
colvars: Saving collective variables state to "rest.colvars.state".
colvars: Synchronizing (emptying the buffer of) trajectory file "Run5_Fusion_Es_3kT_Ens_05kT.colvars.traj".
colvars: Saving collective variables state to "rest.colvars.state".
colvars: Synchronizing (emptying the buffer of) trajectory file "Run5_Fusion_Es_3kT_Ens_05kT.colvars.traj".
colvars: Saving collective variables state to "rest.colvars.state".
colvars: Synchronizing (emptying the buffer of) trajectory file "Run5_Fusion_Es_3kT_Ens_05kT.colvars.traj".
colvars: Saving collective variables state to "rest.colvars.state".
colvars: Synchronizing (emptying the buffer of) trajectory file "Run5_Fusion_Es_3kT_Ens_05kT.colvars.traj".
colvars: Saving collective variables state to "rest.colvars.state".
colvars: Synchronizing (emptying the buffer of) trajectory file "Run5_Fusion_Es_3kT_Ens_05kT.colvars.traj".
colvars: Saving collective variables state to "rest.colvars.state".
colvars: Synchronizing (emptying the buffer of) trajectory file "Run5_Fusion_Es_3kT_Ens_05kT.colvars.traj".
colvars: Saving collective variables state to "rest.colvars.state".
colvars: Synchronizing (emptying the buffer of) trajectory file "Run5_Fusion_Es_3kT_Ens_05kT.colvars.traj".
colvars: Saving collective variables state to "rest.colvars.state".
colvars: Synchronizing (emptying the buffer of) trajectory file "Run5_Fusion_Es_3kT_Ens_05kT.colvars.traj".
colvars: Saving collective variables state to "rest.colvars.state".
colvars: Synchronizing (emptying the buffer of) trajectory file "Run5_Fusion_Es_3kT_Ens_05kT.colvars.traj".
colvars: Saving collective variables state to "rest.colvars.state".
colvars: Synchronizing (emptying the buffer of) trajectory file "Run5_Fusion_Es_3kT_Ens_05kT.colvars.traj".
colvars: Saving collective variables state to "rest.colvars.state".
colvars: Synchronizing (emptying the buffer of) trajectory file "Run5_Fusion_Es_3kT_Ens_05kT.colvars.traj".
colvars: Saving collective variables state to "rest.colvars.state".
10000000   -7468.9589    1405.6716    9243.2323    3091.1944    5783.4362     310.1223    10518 
colvars: Synchronizing (emptying the buffer of) trajectory file "Run5_Fusion_Es_3kT_Ens_05kT.colvars.traj".
colvars: Saving collective variables state to "rest.colvars.state".
colvars: Synchronizing (emptying the buffer of) trajectory file "Run5_Fusion_Es_3kT_Ens_05kT.colvars.traj".
colvars: Saving collective variables state to "rest.colvars.state".
colvars: Synchronizing (emptying the buffer of) trajectory file "Run5_Fusion_Es_3kT_Ens_05kT.colvars.traj".
colvars: Saving collective variables state to "rest.colvars.state".
colvars: Synchronizing (emptying the buffer of) trajectory file "Run5_Fusion_Es_3kT_Ens_05kT.colvars.traj".
colvars: Saving collective variables state to "rest.colvars.state".
colvars: Synchronizing (emptying the buffer of) trajectory file "Run5_Fusion_Es_3kT_Ens_05kT.colvars.traj".
colvars: Saving collective variables state to "rest.colvars.state".
colvars: Synchronizing (emptying the buffer of) trajectory file "Run5_Fusion_Es_3kT_Ens_05kT.colvars.traj".
colvars: Saving collective variables state to "rest.colvars.state".
colvars: Synchronizing (emptying the buffer of) trajectory file "Run5_Fusion_Es_3kT_Ens_05kT.colvars.traj".
colvars: Saving collective variables state to "rest.colvars.state".
colvars: Synchronizing (emptying the buffer of) trajectory file "Run5_Fusion_Es_3kT_Ens_05kT.colvars.traj".
colvars: Saving collective variables state to "rest.colvars.state".
colvars: Synchronizing (emptying the buffer of) trajectory file "Run5_Fusion_Es_3kT_Ens_05kT.colvars.traj".
colvars: Saving collective variables state to "rest.colvars.state".
colvars: Synchronizing (emptying the buffer of) trajectory file "Run5_Fusion_Es_3kT_Ens_05kT.colvars.traj".
colvars: Saving collective variables state to "rest.colvars.state".
colvars: Synchronizing (emptying the buffer of) trajectory file "Run5_Fusion_Es_3kT_Ens_05kT.colvars.traj".
colvars: Saving collective variables state to "rest.colvars.state".
colvars: Synchronizing (emptying the buffer of) trajectory file "Run5_Fusion_Es_3kT_Ens_05kT.colvars.traj".
colvars: Saving collective variables state to "rest.colvars.state".
colvars: Synchronizing (emptying the buffer of) trajectory file "Run5_Fusion_Es_3kT_Ens_05kT.colvars.traj".
colvars: Saving collective variables state to "rest.colvars.state".
colvars: Synchronizing (emptying the buffer of) trajectory file "Run5_Fusion_Es_3kT_Ens_05kT.colvars.traj".
colvars: Saving collective variables state to "rest.colvars.state".
colvars: Synchronizing (emptying the buffer of) trajectory file "Run5_Fusion_Es_3kT_Ens_05kT.colvars.traj".
colvars: Saving collective variables state to "rest.colvars.state".
colvars: Synchronizing (emptying the buffer of) trajectory file "Run5_Fusion_Es_3kT_Ens_05kT.colvars.traj".
colvars: Saving collective variables state to "rest.colvars.state".
colvars: Synchronizing (emptying the buffer of) trajectory file "Run5_Fusion_Es_3kT_Ens_05kT.colvars.traj".
colvars: Saving collective variables state to "rest.colvars.state".
colvars: Synchronizing (emptying the buffer of) trajectory file "Run5_Fusion_Es_3kT_Ens_05kT.colvars.traj".
colvars: Saving collective variables state to "rest.colvars.state".
colvars: Synchronizing (emptying the buffer of) trajectory file "Run5_Fusion_Es_3kT_Ens_05kT.colvars.traj".
colvars: Saving collective variables state to "rest.colvars.state".
colvars: Synchronizing (emptying the buffer of) trajectory file "Run5_Fusion_Es_3kT_Ens_05kT.colvars.traj".
colvars: Saving collective variables state to "rest.colvars.state".
11000000   -7627.2897    1268.8448     9143.994     3141.157    5754.9775    306.79273    10502 
colvars: Synchronizing (emptying the buffer of) trajectory file "Run5_Fusion_Es_3kT_Ens_05kT.colvars.traj".
colvars: Saving collective variables state to "rest.colvars.state".
colvars: Synchronizing (emptying the buffer of) trajectory file "Run5_Fusion_Es_3kT_Ens_05kT.colvars.traj".
colvars: Saving collective variables state to "rest.colvars.state".
colvars: Synchronizing (emptying the buffer of) trajectory file "Run5_Fusion_Es_3kT_Ens_05kT.colvars.traj".
colvars: Saving collective variables state to "rest.colvars.state".
colvars: Synchronizing (emptying the buffer of) trajectory file "Run5_Fusion_Es_3kT_Ens_05kT.colvars.traj".
colvars: Saving collective variables state to "rest.colvars.state".
colvars: Synchronizing (emptying the buffer of) trajectory file "Run5_Fusion_Es_3kT_Ens_05kT.colvars.traj".
colvars: Saving collective variables state to "rest.colvars.state".
colvars: Synchronizing (emptying the buffer of) trajectory file "Run5_Fusion_Es_3kT_Ens_05kT.colvars.traj".
colvars: Saving collective variables state to "rest.colvars.state".
colvars: Synchronizing (emptying the buffer of) trajectory file "Run5_Fusion_Es_3kT_Ens_05kT.colvars.traj".
colvars: Saving collective variables state to "rest.colvars.state".
colvars: Synchronizing (emptying the buffer of) trajectory file "Run5_Fusion_Es_3kT_Ens_05kT.colvars.traj".
colvars: Saving collective variables state to "rest.colvars.state".
colvars: Synchronizing (emptying the buffer of) trajectory file "Run5_Fusion_Es_3kT_Ens_05kT.colvars.traj".
colvars: Saving collective variables state to "rest.colvars.state".
colvars: Synchronizing (emptying the buffer of) trajectory file "Run5_Fusion_Es_3kT_Ens_05kT.colvars.traj".
colvars: Saving collective variables state to "rest.colvars.state".
colvars: Synchronizing (emptying the buffer of) trajectory file "Run5_Fusion_Es_3kT_Ens_05kT.colvars.traj".
colvars: Saving collective variables state to "rest.colvars.state".
colvars: Synchronizing (emptying the buffer of) trajectory file "Run5_Fusion_Es_3kT_Ens_05kT.colvars.traj".
colvars: Saving collective variables state to "rest.colvars.state".
colvars: Synchronizing (emptying the buffer of) trajectory file "Run5_Fusion_Es_3kT_Ens_05kT.colvars.traj".
colvars: Saving collective variables state to "rest.colvars.state".
colvars: Synchronizing (emptying the buffer of) trajectory file "Run5_Fusion_Es_3kT_Ens_05kT.colvars.traj".
colvars: Saving collective variables state to "rest.colvars.state".
colvars: Synchronizing (emptying the buffer of) trajectory file "Run5_Fusion_Es_3kT_Ens_05kT.colvars.traj".
colvars: Saving collective variables state to "rest.colvars.state".
colvars: Synchronizing (emptying the buffer of) trajectory file "Run5_Fusion_Es_3kT_Ens_05kT.colvars.traj".
colvars: Saving collective variables state to "rest.colvars.state".
colvars: Synchronizing (emptying the buffer of) trajectory file "Run5_Fusion_Es_3kT_Ens_05kT.colvars.traj".
colvars: Saving collective variables state to "rest.colvars.state".
colvars: Synchronizing (emptying the buffer of) trajectory file "Run5_Fusion_Es_3kT_Ens_05kT.colvars.traj".
colvars: Saving collective variables state to "rest.colvars.state".
colvars: Synchronizing (emptying the buffer of) trajectory file "Run5_Fusion_Es_3kT_Ens_05kT.colvars.traj".
colvars: Saving collective variables state to "rest.colvars.state".
colvars: Synchronizing (emptying the buffer of) trajectory file "Run5_Fusion_Es_3kT_Ens_05kT.colvars.traj".
colvars: Saving collective variables state to "rest.colvars.state".
12000000   -7491.8155     1300.301    9307.6011    3137.3818    5654.7346    312.28196    10500 
colvars: Synchronizing (emptying the buffer of) trajectory file "Run5_Fusion_Es_3kT_Ens_05kT.colvars.traj".
colvars: Saving collective variables state to "rest.colvars.state".
colvars: Synchronizing (emptying the buffer of) trajectory file "Run5_Fusion_Es_3kT_Ens_05kT.colvars.traj".
colvars: Saving collective variables state to "rest.colvars.state".
colvars: Synchronizing (emptying the buffer of) trajectory file "Run5_Fusion_Es_3kT_Ens_05kT.colvars.traj".
colvars: Saving collective variables state to "rest.colvars.state".
colvars: Synchronizing (emptying the buffer of) trajectory file "Run5_Fusion_Es_3kT_Ens_05kT.colvars.traj".
colvars: Saving collective variables state to "rest.colvars.state".
colvars: Synchronizing (emptying the buffer of) trajectory file "Run5_Fusion_Es_3kT_Ens_05kT.colvars.traj".
colvars: Saving collective variables state to "rest.colvars.state".
colvars: Synchronizing (emptying the buffer of) trajectory file "Run5_Fusion_Es_3kT_Ens_05kT.colvars.traj".
colvars: Saving collective variables state to "rest.colvars.state".
colvars: Synchronizing (emptying the buffer of) trajectory file "Run5_Fusion_Es_3kT_Ens_05kT.colvars.traj".
colvars: Saving collective variables state to "rest.colvars.state".
colvars: Synchronizing (emptying the buffer of) trajectory file "Run5_Fusion_Es_3kT_Ens_05kT.colvars.traj".
colvars: Saving collective variables state to "rest.colvars.state".
colvars: Synchronizing (emptying the buffer of) trajectory file "Run5_Fusion_Es_3kT_Ens_05kT.colvars.traj".
colvars: Saving collective variables state to "rest.colvars.state".
colvars: Synchronizing (emptying the buffer of) trajectory file "Run5_Fusion_Es_3kT_Ens_05kT.colvars.traj".
colvars: Saving collective variables state to "rest.colvars.state".
colvars: Synchronizing (emptying the buffer of) trajectory file "Run5_Fusion_Es_3kT_Ens_05kT.colvars.traj".
colvars: Saving collective variables state to "rest.colvars.state".
colvars: Synchronizing (emptying the buffer of) trajectory file "Run5_Fusion_Es_3kT_Ens_05kT.colvars.traj".
colvars: Saving collective variables state to "rest.colvars.state".
colvars: Synchronizing (emptying the buffer of) trajectory file "Run5_Fusion_Es_3kT_Ens_05kT.colvars.traj".
colvars: Saving collective variables state to "rest.colvars.state".
colvars: Synchronizing (emptying the buffer of) trajectory file "Run5_Fusion_Es_3kT_Ens_05kT.colvars.traj".
colvars: Saving collective variables state to "rest.colvars.state".
colvars: Synchronizing (emptying the buffer of) trajectory file "Run5_Fusion_Es_3kT_Ens_05kT.colvars.traj".
colvars: Saving collective variables state to "rest.colvars.state".
colvars: Synchronizing (emptying the buffer of) trajectory file "Run5_Fusion_Es_3kT_Ens_05kT.colvars.traj".
colvars: Saving collective variables state to "rest.colvars.state".
colvars: Synchronizing (emptying the buffer of) trajectory file "Run5_Fusion_Es_3kT_Ens_05kT.colvars.traj".
colvars: Saving collective variables state to "rest.colvars.state".
colvars: Synchronizing (emptying the buffer of) trajectory file "Run5_Fusion_Es_3kT_Ens_05kT.colvars.traj".
colvars: Saving collective variables state to "rest.colvars.state".
colvars: Synchronizing (emptying the buffer of) trajectory file "Run5_Fusion_Es_3kT_Ens_05kT.colvars.traj".
colvars: Saving collective variables state to "rest.colvars.state".
colvars: Synchronizing (emptying the buffer of) trajectory file "Run5_Fusion_Es_3kT_Ens_05kT.colvars.traj".
colvars: Saving collective variables state to "rest.colvars.state".
13000000   -7537.2999    1354.8468    9173.7981    3128.3856    5763.7612    307.79269    10511 
colvars: Synchronizing (emptying the buffer of) trajectory file "Run5_Fusion_Es_3kT_Ens_05kT.colvars.traj".
colvars: Saving collective variables state to "rest.colvars.state".
colvars: Synchronizing (emptying the buffer of) trajectory file "Run5_Fusion_Es_3kT_Ens_05kT.colvars.traj".
colvars: Saving collective variables state to "rest.colvars.state".
colvars: Synchronizing (emptying the buffer of) trajectory file "Run5_Fusion_Es_3kT_Ens_05kT.colvars.traj".
colvars: Saving collective variables state to "rest.colvars.state".
colvars: Synchronizing (emptying the buffer of) trajectory file "Run5_Fusion_Es_3kT_Ens_05kT.colvars.traj".
colvars: Saving collective variables state to "rest.colvars.state".
colvars: Synchronizing (emptying the buffer of) trajectory file "Run5_Fusion_Es_3kT_Ens_05kT.colvars.traj".
colvars: Saving collective variables state to "rest.colvars.state".
colvars: Synchronizing (emptying the buffer of) trajectory file "Run5_Fusion_Es_3kT_Ens_05kT.colvars.traj".
colvars: Saving collective variables state to "rest.colvars.state".
colvars: Synchronizing (emptying the buffer of) trajectory file "Run5_Fusion_Es_3kT_Ens_05kT.colvars.traj".
colvars: Saving collective variables state to "rest.colvars.state".
colvars: Synchronizing (emptying the buffer of) trajectory file "Run5_Fusion_Es_3kT_Ens_05kT.colvars.traj".
colvars: Saving collective variables state to "rest.colvars.state".
colvars: Synchronizing (emptying the buffer of) trajectory file "Run5_Fusion_Es_3kT_Ens_05kT.colvars.traj".
colvars: Saving collective variables state to "rest.colvars.state".
colvars: Synchronizing (emptying the buffer of) trajectory file "Run5_Fusion_Es_3kT_Ens_05kT.colvars.traj".
colvars: Saving collective variables state to "rest.colvars.state".
colvars: Synchronizing (emptying the buffer of) trajectory file "Run5_Fusion_Es_3kT_Ens_05kT.colvars.traj".
colvars: Saving collective variables state to "rest.colvars.state".
colvars: Synchronizing (emptying the buffer of) trajectory file "Run5_Fusion_Es_3kT_Ens_05kT.colvars.traj".
colvars: Saving collective variables state to "rest.colvars.state".
colvars: Synchronizing (emptying the buffer of) trajectory file "Run5_Fusion_Es_3kT_Ens_05kT.colvars.traj".
colvars: Saving collective variables state to "rest.colvars.state".
colvars: Synchronizing (emptying the buffer of) trajectory file "Run5_Fusion_Es_3kT_Ens_05kT.colvars.traj".
colvars: Saving collective variables state to "rest.colvars.state".
colvars: Synchronizing (emptying the buffer of) trajectory file "Run5_Fusion_Es_3kT_Ens_05kT.colvars.traj".
colvars: Saving collective variables state to "rest.colvars.state".
colvars: Synchronizing (emptying the buffer of) trajectory file "Run5_Fusion_Es_3kT_Ens_05kT.colvars.traj".
colvars: Saving collective variables state to "rest.colvars.state".
colvars: Synchronizing (emptying the buffer of) trajectory file "Run5_Fusion_Es_3kT_Ens_05kT.colvars.traj".
colvars: Saving collective variables state to "rest.colvars.state".
colvars: Synchronizing (emptying the buffer of) trajectory file "Run5_Fusion_Es_3kT_Ens_05kT.colvars.traj".
colvars: Saving collective variables state to "rest.colvars.state".
colvars: Synchronizing (emptying the buffer of) trajectory file "Run5_Fusion_Es_3kT_Ens_05kT.colvars.traj".
colvars: Saving collective variables state to "rest.colvars.state".
colvars: Synchronizing (emptying the buffer of) trajectory file "Run5_Fusion_Es_3kT_Ens_05kT.colvars.traj".
colvars: Saving collective variables state to "rest.colvars.state".
14000000   -7479.3305    1388.1226    9199.1301    3102.5526    5764.9004    308.64262    10505 
colvars: Synchronizing (emptying the buffer of) trajectory file "Run5_Fusion_Es_3kT_Ens_05kT.colvars.traj".
colvars: Saving collective variables state to "rest.colvars.state".
colvars: Synchronizing (emptying the buffer of) trajectory file "Run5_Fusion_Es_3kT_Ens_05kT.colvars.traj".
colvars: Saving collective variables state to "rest.colvars.state".
colvars: Synchronizing (emptying the buffer of) trajectory file "Run5_Fusion_Es_3kT_Ens_05kT.colvars.traj".
colvars: Saving collective variables state to "rest.colvars.state".
colvars: Synchronizing (emptying the buffer of) trajectory file "Run5_Fusion_Es_3kT_Ens_05kT.colvars.traj".
colvars: Saving collective variables state to "rest.colvars.state".
colvars: Synchronizing (emptying the buffer of) trajectory file "Run5_Fusion_Es_3kT_Ens_05kT.colvars.traj".
colvars: Saving collective variables state to "rest.colvars.state".
colvars: Synchronizing (emptying the buffer of) trajectory file "Run5_Fusion_Es_3kT_Ens_05kT.colvars.traj".
colvars: Saving collective variables state to "rest.colvars.state".
colvars: Synchronizing (emptying the buffer of) trajectory file "Run5_Fusion_Es_3kT_Ens_05kT.colvars.traj".
colvars: Saving collective variables state to "rest.colvars.state".
colvars: Synchronizing (emptying the buffer of) trajectory file "Run5_Fusion_Es_3kT_Ens_05kT.colvars.traj".
colvars: Saving collective variables state to "rest.colvars.state".
colvars: Synchronizing (emptying the buffer of) trajectory file "Run5_Fusion_Es_3kT_Ens_05kT.colvars.traj".
colvars: Saving collective variables state to "rest.colvars.state".
colvars: Synchronizing (emptying the buffer of) trajectory file "Run5_Fusion_Es_3kT_Ens_05kT.colvars.traj".
colvars: Saving collective variables state to "rest.colvars.state".
colvars: Synchronizing (emptying the buffer of) trajectory file "Run5_Fusion_Es_3kT_Ens_05kT.colvars.traj".
colvars: Saving collective variables state to "rest.colvars.state".
colvars: Synchronizing (emptying the buffer of) trajectory file "Run5_Fusion_Es_3kT_Ens_05kT.colvars.traj".
colvars: Saving collective variables state to "rest.colvars.state".
colvars: Synchronizing (emptying the buffer of) trajectory file "Run5_Fusion_Es_3kT_Ens_05kT.colvars.traj".
colvars: Saving collective variables state to "rest.colvars.state".
colvars: Synchronizing (emptying the buffer of) trajectory file "Run5_Fusion_Es_3kT_Ens_05kT.colvars.traj".
colvars: Saving collective variables state to "rest.colvars.state".
colvars: Synchronizing (emptying the buffer of) trajectory file "Run5_Fusion_Es_3kT_Ens_05kT.colvars.traj".
colvars: Saving collective variables state to "rest.colvars.state".
colvars: Synchronizing (emptying the buffer of) trajectory file "Run5_Fusion_Es_3kT_Ens_05kT.colvars.traj".
colvars: Saving collective variables state to "rest.colvars.state".
colvars: Synchronizing (emptying the buffer of) trajectory file "Run5_Fusion_Es_3kT_Ens_05kT.colvars.traj".
colvars: Saving collective variables state to "rest.colvars.state".
colvars: Synchronizing (emptying the buffer of) trajectory file "Run5_Fusion_Es_3kT_Ens_05kT.colvars.traj".
colvars: Saving collective variables state to "rest.colvars.state".
colvars: Synchronizing (emptying the buffer of) trajectory file "Run5_Fusion_Es_3kT_Ens_05kT.colvars.traj".
colvars: Saving collective variables state to "rest.colvars.state".
colvars: Synchronizing (emptying the buffer of) trajectory file "Run5_Fusion_Es_3kT_Ens_05kT.colvars.traj".
colvars: Saving collective variables state to "rest.colvars.state".
15000000   -7501.1793    1337.1212    9398.6956    3038.4174     5799.883    315.33829    10506 
colvars: Synchronizing (emptying the buffer of) trajectory file "Run5_Fusion_Es_3kT_Ens_05kT.colvars.traj".
colvars: Saving collective variables state to "rest.colvars.state".
colvars: Synchronizing (emptying the buffer of) trajectory file "Run5_Fusion_Es_3kT_Ens_05kT.colvars.traj".
colvars: Saving collective variables state to "rest.colvars.state".
colvars: Synchronizing (emptying the buffer of) trajectory file "Run5_Fusion_Es_3kT_Ens_05kT.colvars.traj".
colvars: Saving collective variables state to "rest.colvars.state".
colvars: Synchronizing (emptying the buffer of) trajectory file "Run5_Fusion_Es_3kT_Ens_05kT.colvars.traj".
colvars: Saving collective variables state to "rest.colvars.state".
colvars: Synchronizing (emptying the buffer of) trajectory file "Run5_Fusion_Es_3kT_Ens_05kT.colvars.traj".
colvars: Saving collective variables state to "rest.colvars.state".
colvars: Synchronizing (emptying the buffer of) trajectory file "Run5_Fusion_Es_3kT_Ens_05kT.colvars.traj".
colvars: Saving collective variables state to "rest.colvars.state".
colvars: Synchronizing (emptying the buffer of) trajectory file "Run5_Fusion_Es_3kT_Ens_05kT.colvars.traj".
colvars: Saving collective variables state to "rest.colvars.state".
colvars: Synchronizing (emptying the buffer of) trajectory file "Run5_Fusion_Es_3kT_Ens_05kT.colvars.traj".
colvars: Saving collective variables state to "rest.colvars.state".
colvars: Synchronizing (emptying the buffer of) trajectory file "Run5_Fusion_Es_3kT_Ens_05kT.colvars.traj".
colvars: Saving collective variables state to "rest.colvars.state".
colvars: Synchronizing (emptying the buffer of) trajectory file "Run5_Fusion_Es_3kT_Ens_05kT.colvars.traj".
colvars: Saving collective variables state to "rest.colvars.state".
colvars: Synchronizing (emptying the buffer of) trajectory file "Run5_Fusion_Es_3kT_Ens_05kT.colvars.traj".
colvars: Saving collective variables state to "rest.colvars.state".
colvars: Synchronizing (emptying the buffer of) trajectory file "Run5_Fusion_Es_3kT_Ens_05kT.colvars.traj".
colvars: Saving collective variables state to "rest.colvars.state".
colvars: Synchronizing (emptying the buffer of) trajectory file "Run5_Fusion_Es_3kT_Ens_05kT.colvars.traj".
colvars: Saving collective variables state to "rest.colvars.state".
colvars: Synchronizing (emptying the buffer of) trajectory file "Run5_Fusion_Es_3kT_Ens_05kT.colvars.traj".
colvars: Saving collective variables state to "rest.colvars.state".
colvars: Synchronizing (emptying the buffer of) trajectory file "Run5_Fusion_Es_3kT_Ens_05kT.colvars.traj".
colvars: Saving collective variables state to "rest.colvars.state".
colvars: Synchronizing (emptying the buffer of) trajectory file "Run5_Fusion_Es_3kT_Ens_05kT.colvars.traj".
colvars: Saving collective variables state to "rest.colvars.state".
colvars: Synchronizing (emptying the buffer of) trajectory file "Run5_Fusion_Es_3kT_Ens_05kT.colvars.traj".
colvars: Saving collective variables state to "rest.colvars.state".
colvars: Synchronizing (emptying the buffer of) trajectory file "Run5_Fusion_Es_3kT_Ens_05kT.colvars.traj".
colvars: Saving collective variables state to "rest.colvars.state".
colvars: Synchronizing (emptying the buffer of) trajectory file "Run5_Fusion_Es_3kT_Ens_05kT.colvars.traj".
colvars: Saving collective variables state to "rest.colvars.state".
colvars: Synchronizing (emptying the buffer of) trajectory file "Run5_Fusion_Es_3kT_Ens_05kT.colvars.traj".
colvars: Saving collective variables state to "rest.colvars.state".
16000000   -7608.3567    1323.8234    9195.8204     3198.465    5733.7151    308.53157    10504 
colvars: Synchronizing (emptying the buffer of) trajectory file "Run5_Fusion_Es_3kT_Ens_05kT.colvars.traj".
colvars: Saving collective variables state to "rest.colvars.state".
colvars: Synchronizing (emptying the buffer of) trajectory file "Run5_Fusion_Es_3kT_Ens_05kT.colvars.traj".
colvars: Saving collective variables state to "rest.colvars.state".
colvars: Synchronizing (emptying the buffer of) trajectory file "Run5_Fusion_Es_3kT_Ens_05kT.colvars.traj".
colvars: Saving collective variables state to "rest.colvars.state".
colvars: Synchronizing (emptying the buffer of) trajectory file "Run5_Fusion_Es_3kT_Ens_05kT.colvars.traj".
colvars: Saving collective variables state to "rest.colvars.state".
colvars: Synchronizing (emptying the buffer of) trajectory file "Run5_Fusion_Es_3kT_Ens_05kT.colvars.traj".
colvars: Saving collective variables state to "rest.colvars.state".
colvars: Synchronizing (emptying the buffer of) trajectory file "Run5_Fusion_Es_3kT_Ens_05kT.colvars.traj".
colvars: Saving collective variables state to "rest.colvars.state".
colvars: Synchronizing (emptying the buffer of) trajectory file "Run5_Fusion_Es_3kT_Ens_05kT.colvars.traj".
colvars: Saving collective variables state to "rest.colvars.state".
colvars: Synchronizing (emptying the buffer of) trajectory file "Run5_Fusion_Es_3kT_Ens_05kT.colvars.traj".
colvars: Saving collective variables state to "rest.colvars.state".
colvars: Synchronizing (emptying the buffer of) trajectory file "Run5_Fusion_Es_3kT_Ens_05kT.colvars.traj".
colvars: Saving collective variables state to "rest.colvars.state".
colvars: Synchronizing (emptying the buffer of) trajectory file "Run5_Fusion_Es_3kT_Ens_05kT.colvars.traj".
colvars: Saving collective variables state to "rest.colvars.state".
colvars: Synchronizing (emptying the buffer of) trajectory file "Run5_Fusion_Es_3kT_Ens_05kT.colvars.traj".
colvars: Saving collective variables state to "rest.colvars.state".
colvars: Synchronizing (emptying the buffer of) trajectory file "Run5_Fusion_Es_3kT_Ens_05kT.colvars.traj".
colvars: Saving collective variables state to "rest.colvars.state".
colvars: Synchronizing (emptying the buffer of) trajectory file "Run5_Fusion_Es_3kT_Ens_05kT.colvars.traj".
colvars: Saving collective variables state to "rest.colvars.state".
colvars: Synchronizing (emptying the buffer of) trajectory file "Run5_Fusion_Es_3kT_Ens_05kT.colvars.traj".
colvars: Saving collective variables state to "rest.colvars.state".
colvars: Synchronizing (emptying the buffer of) trajectory file "Run5_Fusion_Es_3kT_Ens_05kT.colvars.traj".
colvars: Saving collective variables state to "rest.colvars.state".
colvars: Synchronizing (emptying the buffer of) trajectory file "Run5_Fusion_Es_3kT_Ens_05kT.colvars.traj".
colvars: Saving collective variables state to "rest.colvars.state".
colvars: Synchronizing (emptying the buffer of) trajectory file "Run5_Fusion_Es_3kT_Ens_05kT.colvars.traj".
colvars: Saving collective variables state to "rest.colvars.state".
colvars: Synchronizing (emptying the buffer of) trajectory file "Run5_Fusion_Es_3kT_Ens_05kT.colvars.traj".
colvars: Saving collective variables state to "rest.colvars.state".
colvars: Synchronizing (emptying the buffer of) trajectory file "Run5_Fusion_Es_3kT_Ens_05kT.colvars.traj".
colvars: Saving collective variables state to "rest.colvars.state".
colvars: Synchronizing (emptying the buffer of) trajectory file "Run5_Fusion_Es_3kT_Ens_05kT.colvars.traj".
colvars: Saving collective variables state to "rest.colvars.state".
17000000   -7612.3145    1278.2455    9288.7818    3115.0188    5775.5412    311.65055    10518 
colvars: Synchronizing (emptying the buffer of) trajectory file "Run5_Fusion_Es_3kT_Ens_05kT.colvars.traj".
colvars: Saving collective variables state to "rest.colvars.state".
colvars: Synchronizing (emptying the buffer of) trajectory file "Run5_Fusion_Es_3kT_Ens_05kT.colvars.traj".
colvars: Saving collective variables state to "rest.colvars.state".
colvars: Synchronizing (emptying the buffer of) trajectory file "Run5_Fusion_Es_3kT_Ens_05kT.colvars.traj".
colvars: Saving collective variables state to "rest.colvars.state".
colvars: Synchronizing (emptying the buffer of) trajectory file "Run5_Fusion_Es_3kT_Ens_05kT.colvars.traj".
colvars: Saving collective variables state to "rest.colvars.state".
colvars: Synchronizing (emptying the buffer of) trajectory file "Run5_Fusion_Es_3kT_Ens_05kT.colvars.traj".
colvars: Saving collective variables state to "rest.colvars.state".
colvars: Synchronizing (emptying the buffer of) trajectory file "Run5_Fusion_Es_3kT_Ens_05kT.colvars.traj".
colvars: Saving collective variables state to "rest.colvars.state".
colvars: Synchronizing (emptying the buffer of) trajectory file "Run5_Fusion_Es_3kT_Ens_05kT.colvars.traj".
colvars: Saving collective variables state to "rest.colvars.state".
colvars: Synchronizing (emptying the buffer of) trajectory file "Run5_Fusion_Es_3kT_Ens_05kT.colvars.traj".
colvars: Saving collective variables state to "rest.colvars.state".
colvars: Synchronizing (emptying the buffer of) trajectory file "Run5_Fusion_Es_3kT_Ens_05kT.colvars.traj".
colvars: Saving collective variables state to "rest.colvars.state".
colvars: Synchronizing (emptying the buffer of) trajectory file "Run5_Fusion_Es_3kT_Ens_05kT.colvars.traj".
colvars: Saving collective variables state to "rest.colvars.state".
colvars: Synchronizing (emptying the buffer of) trajectory file "Run5_Fusion_Es_3kT_Ens_05kT.colvars.traj".
colvars: Saving collective variables state to "rest.colvars.state".
colvars: Synchronizing (emptying the buffer of) trajectory file "Run5_Fusion_Es_3kT_Ens_05kT.colvars.traj".
colvars: Saving collective variables state to "rest.colvars.state".
colvars: Synchronizing (emptying the buffer of) trajectory file "Run5_Fusion_Es_3kT_Ens_05kT.colvars.traj".
colvars: Saving collective variables state to "rest.colvars.state".
colvars: Synchronizing (emptying the buffer of) trajectory file "Run5_Fusion_Es_3kT_Ens_05kT.colvars.traj".
colvars: Saving collective variables state to "rest.colvars.state".
colvars: Synchronizing (emptying the buffer of) trajectory file "Run5_Fusion_Es_3kT_Ens_05kT.colvars.traj".
colvars: Saving collective variables state to "rest.colvars.state".
colvars: Synchronizing (emptying the buffer of) trajectory file "Run5_Fusion_Es_3kT_Ens_05kT.colvars.traj".
colvars: Saving collective variables state to "rest.colvars.state".
colvars: Synchronizing (emptying the buffer of) trajectory file "Run5_Fusion_Es_3kT_Ens_05kT.colvars.traj".
colvars: Saving collective variables state to "rest.colvars.state".
colvars: Synchronizing (emptying the buffer of) trajectory file "Run5_Fusion_Es_3kT_Ens_05kT.colvars.traj".
colvars: Saving collective variables state to "rest.colvars.state".
colvars: Synchronizing (emptying the buffer of) trajectory file "Run5_Fusion_Es_3kT_Ens_05kT.colvars.traj".
colvars: Saving collective variables state to "rest.colvars.state".
colvars: Synchronizing (emptying the buffer of) trajectory file "Run5_Fusion_Es_3kT_Ens_05kT.colvars.traj".
colvars: Saving collective variables state to "rest.colvars.state".
18000000   -7588.9567    1426.8988    9227.5276    3165.6669    5850.1886    309.59539    10520 
colvars: Synchronizing (emptying the buffer of) trajectory file "Run5_Fusion_Es_3kT_Ens_05kT.colvars.traj".
colvars: Saving collective variables state to "rest.colvars.state".
colvars: Synchronizing (emptying the buffer of) trajectory file "Run5_Fusion_Es_3kT_Ens_05kT.colvars.traj".
colvars: Saving collective variables state to "rest.colvars.state".
colvars: Synchronizing (emptying the buffer of) trajectory file "Run5_Fusion_Es_3kT_Ens_05kT.colvars.traj".
colvars: Saving collective variables state to "rest.colvars.state".
colvars: Synchronizing (emptying the buffer of) trajectory file "Run5_Fusion_Es_3kT_Ens_05kT.colvars.traj".
colvars: Saving collective variables state to "rest.colvars.state".
colvars: Synchronizing (emptying the buffer of) trajectory file "Run5_Fusion_Es_3kT_Ens_05kT.colvars.traj".
colvars: Saving collective variables state to "rest.colvars.state".
colvars: Synchronizing (emptying the buffer of) trajectory file "Run5_Fusion_Es_3kT_Ens_05kT.colvars.traj".
colvars: Saving collective variables state to "rest.colvars.state".
colvars: Synchronizing (emptying the buffer of) trajectory file "Run5_Fusion_Es_3kT_Ens_05kT.colvars.traj".
colvars: Saving collective variables state to "rest.colvars.state".
colvars: Synchronizing (emptying the buffer of) trajectory file "Run5_Fusion_Es_3kT_Ens_05kT.colvars.traj".
colvars: Saving collective variables state to "rest.colvars.state".
colvars: Synchronizing (emptying the buffer of) trajectory file "Run5_Fusion_Es_3kT_Ens_05kT.colvars.traj".
colvars: Saving collective variables state to "rest.colvars.state".
colvars: Synchronizing (emptying the buffer of) trajectory file "Run5_Fusion_Es_3kT_Ens_05kT.colvars.traj".
colvars: Saving collective variables state to "rest.colvars.state".
colvars: Synchronizing (emptying the buffer of) trajectory file "Run5_Fusion_Es_3kT_Ens_05kT.colvars.traj".
colvars: Saving collective variables state to "rest.colvars.state".
colvars: Synchronizing (emptying the buffer of) trajectory file "Run5_Fusion_Es_3kT_Ens_05kT.colvars.traj".
colvars: Saving collective variables state to "rest.colvars.state".
colvars: Synchronizing (emptying the buffer of) trajectory file "Run5_Fusion_Es_3kT_Ens_05kT.colvars.traj".
colvars: Saving collective variables state to "rest.colvars.state".
colvars: Synchronizing (emptying the buffer of) trajectory file "Run5_Fusion_Es_3kT_Ens_05kT.colvars.traj".
colvars: Saving collective variables state to "rest.colvars.state".
colvars: Synchronizing (emptying the buffer of) trajectory file "Run5_Fusion_Es_3kT_Ens_05kT.colvars.traj".
colvars: Saving collective variables state to "rest.colvars.state".
colvars: Synchronizing (emptying the buffer of) trajectory file "Run5_Fusion_Es_3kT_Ens_05kT.colvars.traj".
colvars: Saving collective variables state to "rest.colvars.state".
colvars: Synchronizing (emptying the buffer of) trajectory file "Run5_Fusion_Es_3kT_Ens_05kT.colvars.traj".
colvars: Saving collective variables state to "rest.colvars.state".
colvars: Synchronizing (emptying the buffer of) trajectory file "Run5_Fusion_Es_3kT_Ens_05kT.colvars.traj".
colvars: Saving collective variables state to "rest.colvars.state".
[...]
colvars: Synchronizing (emptying the buffer of) trajectory file "Run5_Fusion_Es_3kT_Ens_05kT.colvars.traj".
colvars: Saving collective variables state to "rest.colvars.state".
colvars: Synchronizing (emptying the buffer of) trajectory file "Run5_Fusion_Es_3kT_Ens_05kT.colvars.traj".
colvars: Saving collective variables state to "rest.colvars.state".
595000000   -7862.4524    985.72331    9297.4118    3152.2832    5695.8925    311.94009    10512 
colvars: Synchronizing (emptying the buffer of) trajectory file "Run5_Fusion_Es_3kT_Ens_05kT.colvars.traj".
colvars: Saving collective variables state to "rest.colvars.state".
colvars: Synchronizing (emptying the buffer of) trajectory file "Run5_Fusion_Es_3kT_Ens_05kT.colvars.traj".
colvars: Saving collective variables state to "rest.colvars.state".
colvars: Synchronizing (emptying the buffer of) trajectory file "Run5_Fusion_Es_3kT_Ens_05kT.colvars.traj".
colvars: Saving collective variables state to "rest.colvars.state".
colvars: Synchronizing (emptying the buffer of) trajectory file "Run5_Fusion_Es_3kT_Ens_05kT.colvars.traj".
colvars: Saving collective variables state to "rest.colvars.state".
colvars: Synchronizing (emptying the buffer of) trajectory file "Run5_Fusion_Es_3kT_Ens_05kT.colvars.traj".
colvars: Saving collective variables state to "rest.colvars.state".
colvars: Synchronizing (emptying the buffer of) trajectory file "Run5_Fusion_Es_3kT_Ens_05kT.colvars.traj".
colvars: Saving collective variables state to "rest.colvars.state".
colvars: Synchronizing (emptying the buffer of) trajectory file "Run5_Fusion_Es_3kT_Ens_05kT.colvars.traj".
colvars: Saving collective variables state to "rest.colvars.state".
colvars: Synchronizing (emptying the buffer of) trajectory file "Run5_Fusion_Es_3kT_Ens_05kT.colvars.traj".
colvars: Saving collective variables state to "rest.colvars.state".
colvars: Synchronizing (emptying the buffer of) trajectory file "Run5_Fusion_Es_3kT_Ens_05kT.colvars.traj".
colvars: Saving collective variables state to "rest.colvars.state".
colvars: Synchronizing (emptying the buffer of) trajectory file "Run5_Fusion_Es_3kT_Ens_05kT.colvars.traj".
colvars: Saving collective variables state to "rest.colvars.state".
colvars: Synchronizing (emptying the buffer of) trajectory file "Run5_Fusion_Es_3kT_Ens_05kT.colvars.traj".
colvars: Saving collective variables state to "rest.colvars.state".
colvars: Synchronizing (emptying the buffer of) trajectory file "Run5_Fusion_Es_3kT_Ens_05kT.colvars.traj".
colvars: Saving collective variables state to "rest.colvars.state".
colvars: Synchronizing (emptying the buffer of) trajectory file "Run5_Fusion_Es_3kT_Ens_05kT.colvars.traj".
colvars: Saving collective variables state to "rest.colvars.state".
colvars: Synchronizing (emptying the buffer of) trajectory file "Run5_Fusion_Es_3kT_Ens_05kT.colvars.traj".
colvars: Saving collective variables state to "rest.colvars.state".
colvars: Synchronizing (emptying the buffer of) trajectory file "Run5_Fusion_Es_3kT_Ens_05kT.colvars.traj".
colvars: Saving collective variables state to "rest.colvars.state".
colvars: Synchronizing (emptying the buffer of) trajectory file "Run5_Fusion_Es_3kT_Ens_05kT.colvars.traj".
colvars: Saving collective variables state to "rest.colvars.state".
colvars: Synchronizing (emptying the buffer of) trajectory file "Run5_Fusion_Es_3kT_Ens_05kT.colvars.traj".
colvars: Saving collective variables state to "rest.colvars.state".
colvars: Synchronizing (emptying the buffer of) trajectory file "Run5_Fusion_Es_3kT_Ens_05kT.colvars.traj".
colvars: Saving collective variables state to "rest.colvars.state".
colvars: Synchronizing (emptying the buffer of) trajectory file "Run5_Fusion_Es_3kT_Ens_05kT.colvars.traj".
colvars: Saving collective variables state to "rest.colvars.state".
colvars: Synchronizing (emptying the buffer of) trajectory file "Run5_Fusion_Es_3kT_Ens_05kT.colvars.traj".
colvars: Saving collective variables state to "rest.colvars.state".
596000000    -7816.715    960.27232    9151.5947    3085.3901    5691.5972    307.04774    10509 
colvars: Synchronizing (emptying the buffer of) trajectory file "Run5_Fusion_Es_3kT_Ens_05kT.colvars.traj".
colvars: Saving collective variables state to "rest.colvars.state".
colvars: Synchronizing (emptying the buffer of) trajectory file "Run5_Fusion_Es_3kT_Ens_05kT.colvars.traj".
colvars: Saving collective variables state to "rest.colvars.state".
colvars: Synchronizing (emptying the buffer of) trajectory file "Run5_Fusion_Es_3kT_Ens_05kT.colvars.traj".
colvars: Saving collective variables state to "rest.colvars.state".
colvars: Synchronizing (emptying the buffer of) trajectory file "Run5_Fusion_Es_3kT_Ens_05kT.colvars.traj".
colvars: Saving collective variables state to "rest.colvars.state".
colvars: Synchronizing (emptying the buffer of) trajectory file "Run5_Fusion_Es_3kT_Ens_05kT.colvars.traj".
colvars: Saving collective variables state to "rest.colvars.state".
colvars: Synchronizing (emptying the buffer of) trajectory file "Run5_Fusion_Es_3kT_Ens_05kT.colvars.traj".
colvars: Saving collective variables state to "rest.colvars.state".
colvars: Synchronizing (emptying the buffer of) trajectory file "Run5_Fusion_Es_3kT_Ens_05kT.colvars.traj".
colvars: Saving collective variables state to "rest.colvars.state".
colvars: Synchronizing (emptying the buffer of) trajectory file "Run5_Fusion_Es_3kT_Ens_05kT.colvars.traj".
colvars: Saving collective variables state to "rest.colvars.state".
colvars: Synchronizing (emptying the buffer of) trajectory file "Run5_Fusion_Es_3kT_Ens_05kT.colvars.traj".
colvars: Saving collective variables state to "rest.colvars.state".
colvars: Synchronizing (emptying the buffer of) trajectory file "Run5_Fusion_Es_3kT_Ens_05kT.colvars.traj".
colvars: Saving collective variables state to "rest.colvars.state".
colvars: Synchronizing (emptying the buffer of) trajectory file "Run5_Fusion_Es_3kT_Ens_05kT.colvars.traj".
colvars: Saving collective variables state to "rest.colvars.state".
colvars: Synchronizing (emptying the buffer of) trajectory file "Run5_Fusion_Es_3kT_Ens_05kT.colvars.traj".
colvars: Saving collective variables state to "rest.colvars.state".
colvars: Synchronizing (emptying the buffer of) trajectory file "Run5_Fusion_Es_3kT_Ens_05kT.colvars.traj".
colvars: Saving collective variables state to "rest.colvars.state".
colvars: Synchronizing (emptying the buffer of) trajectory file "Run5_Fusion_Es_3kT_Ens_05kT.colvars.traj".
colvars: Saving collective variables state to "rest.colvars.state".
colvars: Synchronizing (emptying the buffer of) trajectory file "Run5_Fusion_Es_3kT_Ens_05kT.colvars.traj".
colvars: Saving collective variables state to "rest.colvars.state".
colvars: Synchronizing (emptying the buffer of) trajectory file "Run5_Fusion_Es_3kT_Ens_05kT.colvars.traj".
colvars: Saving collective variables state to "rest.colvars.state".
colvars: Synchronizing (emptying the buffer of) trajectory file "Run5_Fusion_Es_3kT_Ens_05kT.colvars.traj".
colvars: Saving collective variables state to "rest.colvars.state".
colvars: Synchronizing (emptying the buffer of) trajectory file "Run5_Fusion_Es_3kT_Ens_05kT.colvars.traj".
colvars: Saving collective variables state to "rest.colvars.state".
colvars: Synchronizing (emptying the buffer of) trajectory file "Run5_Fusion_Es_3kT_Ens_05kT.colvars.traj".
colvars: Saving collective variables state to "rest.colvars.state".
colvars: Synchronizing (emptying the buffer of) trajectory file "Run5_Fusion_Es_3kT_Ens_05kT.colvars.traj".
colvars: Saving collective variables state to "rest.colvars.state".
597000000    -7828.741    960.30996    9341.3156    3172.6232    5616.4278    313.41312    10514 
colvars: Synchronizing (emptying the buffer of) trajectory file "Run5_Fusion_Es_3kT_Ens_05kT.colvars.traj".
colvars: Saving collective variables state to "rest.colvars.state".
colvars: Synchronizing (emptying the buffer of) trajectory file "Run5_Fusion_Es_3kT_Ens_05kT.colvars.traj".
colvars: Saving collective variables state to "rest.colvars.state".
colvars: Synchronizing (emptying the buffer of) trajectory file "Run5_Fusion_Es_3kT_Ens_05kT.colvars.traj".
colvars: Saving collective variables state to "rest.colvars.state".
colvars: Synchronizing (emptying the buffer of) trajectory file "Run5_Fusion_Es_3kT_Ens_05kT.colvars.traj".
colvars: Saving collective variables state to "rest.colvars.state".
colvars: Synchronizing (emptying the buffer of) trajectory file "Run5_Fusion_Es_3kT_Ens_05kT.colvars.traj".
colvars: Saving collective variables state to "rest.colvars.state".
colvars: Synchronizing (emptying the buffer of) trajectory file "Run5_Fusion_Es_3kT_Ens_05kT.colvars.traj".
colvars: Saving collective variables state to "rest.colvars.state".
colvars: Synchronizing (emptying the buffer of) trajectory file "Run5_Fusion_Es_3kT_Ens_05kT.colvars.traj".
colvars: Saving collective variables state to "rest.colvars.state".
colvars: Synchronizing (emptying the buffer of) trajectory file "Run5_Fusion_Es_3kT_Ens_05kT.colvars.traj".
colvars: Saving collective variables state to "rest.colvars.state".
colvars: Synchronizing (emptying the buffer of) trajectory file "Run5_Fusion_Es_3kT_Ens_05kT.colvars.traj".
colvars: Saving collective variables state to "rest.colvars.state".
colvars: Synchronizing (emptying the buffer of) trajectory file "Run5_Fusion_Es_3kT_Ens_05kT.colvars.traj".
colvars: Saving collective variables state to "rest.colvars.state".
colvars: Synchronizing (emptying the buffer of) trajectory file "Run5_Fusion_Es_3kT_Ens_05kT.colvars.traj".
colvars: Saving collective variables state to "rest.colvars.state".
colvars: Synchronizing (emptying the buffer of) trajectory file "Run5_Fusion_Es_3kT_Ens_05kT.colvars.traj".
colvars: Saving collective variables state to "rest.colvars.state".
colvars: Synchronizing (emptying the buffer of) trajectory file "Run5_Fusion_Es_3kT_Ens_05kT.colvars.traj".
colvars: Saving collective variables state to "rest.colvars.state".
colvars: Synchronizing (emptying the buffer of) trajectory file "Run5_Fusion_Es_3kT_Ens_05kT.colvars.traj".
colvars: Saving collective variables state to "rest.colvars.state".
colvars: Synchronizing (emptying the buffer of) trajectory file "Run5_Fusion_Es_3kT_Ens_05kT.colvars.traj".
colvars: Saving collective variables state to "rest.colvars.state".
colvars: Synchronizing (emptying the buffer of) trajectory file "Run5_Fusion_Es_3kT_Ens_05kT.colvars.traj".
colvars: Saving collective variables state to "rest.colvars.state".
colvars: Synchronizing (emptying the buffer of) trajectory file "Run5_Fusion_Es_3kT_Ens_05kT.colvars.traj".
colvars: Saving collective variables state to "rest.colvars.state".
colvars: Synchronizing (emptying the buffer of) trajectory file "Run5_Fusion_Es_3kT_Ens_05kT.colvars.traj".
colvars: Saving collective variables state to "rest.colvars.state".
colvars: Synchronizing (emptying the buffer of) trajectory file "Run5_Fusion_Es_3kT_Ens_05kT.colvars.traj".
colvars: Saving collective variables state to "rest.colvars.state".
colvars: Synchronizing (emptying the buffer of) trajectory file "Run5_Fusion_Es_3kT_Ens_05kT.colvars.traj".
colvars: Saving collective variables state to "rest.colvars.state".
598000000   -7928.1731    869.08969    9125.8322    3170.8894    5626.3734    306.18338    10513 
colvars: Synchronizing (emptying the buffer of) trajectory file "Run5_Fusion_Es_3kT_Ens_05kT.colvars.traj".
colvars: Saving collective variables state to "rest.colvars.state".
colvars: Synchronizing (emptying the buffer of) trajectory file "Run5_Fusion_Es_3kT_Ens_05kT.colvars.traj".
colvars: Saving collective variables state to "rest.colvars.state".
colvars: Synchronizing (emptying the buffer of) trajectory file "Run5_Fusion_Es_3kT_Ens_05kT.colvars.traj".
colvars: Saving collective variables state to "rest.colvars.state".
colvars: Synchronizing (emptying the buffer of) trajectory file "Run5_Fusion_Es_3kT_Ens_05kT.colvars.traj".
colvars: Saving collective variables state to "rest.colvars.state".
colvars: Synchronizing (emptying the buffer of) trajectory file "Run5_Fusion_Es_3kT_Ens_05kT.colvars.traj".
colvars: Saving collective variables state to "rest.colvars.state".
colvars: Synchronizing (emptying the buffer of) trajectory file "Run5_Fusion_Es_3kT_Ens_05kT.colvars.traj".
colvars: Saving collective variables state to "rest.colvars.state".
colvars: Synchronizing (emptying the buffer of) trajectory file "Run5_Fusion_Es_3kT_Ens_05kT.colvars.traj".
colvars: Saving collective variables state to "rest.colvars.state".
colvars: Synchronizing (emptying the buffer of) trajectory file "Run5_Fusion_Es_3kT_Ens_05kT.colvars.traj".
colvars: Saving collective variables state to "rest.colvars.state".
colvars: Synchronizing (emptying the buffer of) trajectory file "Run5_Fusion_Es_3kT_Ens_05kT.colvars.traj".
colvars: Saving collective variables state to "rest.colvars.state".
colvars: Synchronizing (emptying the buffer of) trajectory file "Run5_Fusion_Es_3kT_Ens_05kT.colvars.traj".
colvars: Saving collective variables state to "rest.colvars.state".
colvars: Synchronizing (emptying the buffer of) trajectory file "Run5_Fusion_Es_3kT_Ens_05kT.colvars.traj".
colvars: Saving collective variables state to "rest.colvars.state".
colvars: Synchronizing (emptying the buffer of) trajectory file "Run5_Fusion_Es_3kT_Ens_05kT.colvars.traj".
colvars: Saving collective variables state to "rest.colvars.state".
colvars: Synchronizing (emptying the buffer of) trajectory file "Run5_Fusion_Es_3kT_Ens_05kT.colvars.traj".
colvars: Saving collective variables state to "rest.colvars.state".
colvars: Synchronizing (emptying the buffer of) trajectory file "Run5_Fusion_Es_3kT_Ens_05kT.colvars.traj".
colvars: Saving collective variables state to "rest.colvars.state".
colvars: Synchronizing (emptying the buffer of) trajectory file "Run5_Fusion_Es_3kT_Ens_05kT.colvars.traj".
colvars: Saving collective variables state to "rest.colvars.state".
colvars: Synchronizing (emptying the buffer of) trajectory file "Run5_Fusion_Es_3kT_Ens_05kT.colvars.traj".
colvars: Saving collective variables state to "rest.colvars.state".
colvars: Synchronizing (emptying the buffer of) trajectory file "Run5_Fusion_Es_3kT_Ens_05kT.colvars.traj".
colvars: Saving collective variables state to "rest.colvars.state".
colvars: Synchronizing (emptying the buffer of) trajectory file "Run5_Fusion_Es_3kT_Ens_05kT.colvars.traj".
colvars: Saving collective variables state to "rest.colvars.state".
colvars: Synchronizing (emptying the buffer of) trajectory file "Run5_Fusion_Es_3kT_Ens_05kT.colvars.traj".
colvars: Saving collective variables state to "rest.colvars.state".
colvars: Synchronizing (emptying the buffer of) trajectory file "Run5_Fusion_Es_3kT_Ens_05kT.colvars.traj".
colvars: Saving collective variables state to "rest.colvars.state".
599000000   -7911.2427    744.76717    9235.4444    3025.7861    5630.2237    309.86101    10511 
colvars: Synchronizing (emptying the buffer of) trajectory file "Run5_Fusion_Es_3kT_Ens_05kT.colvars.traj".
colvars: Saving collective variables state to "rest.colvars.state".
colvars: Synchronizing (emptying the buffer of) trajectory file "Run5_Fusion_Es_3kT_Ens_05kT.colvars.traj".
colvars: Saving collective variables state to "rest.colvars.state".
colvars: Synchronizing (emptying the buffer of) trajectory file "Run5_Fusion_Es_3kT_Ens_05kT.colvars.traj".
colvars: Saving collective variables state to "rest.colvars.state".
colvars: Synchronizing (emptying the buffer of) trajectory file "Run5_Fusion_Es_3kT_Ens_05kT.colvars.traj".
colvars: Saving collective variables state to "rest.colvars.state".
colvars: Synchronizing (emptying the buffer of) trajectory file "Run5_Fusion_Es_3kT_Ens_05kT.colvars.traj".
colvars: Saving collective variables state to "rest.colvars.state".
colvars: Synchronizing (emptying the buffer of) trajectory file "Run5_Fusion_Es_3kT_Ens_05kT.colvars.traj".
colvars: Saving collective variables state to "rest.colvars.state".
colvars: Synchronizing (emptying the buffer of) trajectory file "Run5_Fusion_Es_3kT_Ens_05kT.colvars.traj".
colvars: Saving collective variables state to "rest.colvars.state".
colvars: Synchronizing (emptying the buffer of) trajectory file "Run5_Fusion_Es_3kT_Ens_05kT.colvars.traj".
colvars: Saving collective variables state to "rest.colvars.state".
colvars: Synchronizing (emptying the buffer of) trajectory file "Run5_Fusion_Es_3kT_Ens_05kT.colvars.traj".
colvars: Saving collective variables state to "rest.colvars.state".
colvars: Synchronizing (emptying the buffer of) trajectory file "Run5_Fusion_Es_3kT_Ens_05kT.colvars.traj".
colvars: Saving collective variables state to "rest.colvars.state".
colvars: Synchronizing (emptying the buffer of) trajectory file "Run5_Fusion_Es_3kT_Ens_05kT.colvars.traj".
colvars: Saving collective variables state to "rest.colvars.state".
colvars: Synchronizing (emptying the buffer of) trajectory file "Run5_Fusion_Es_3kT_Ens_05kT.colvars.traj".
colvars: Saving collective variables state to "rest.colvars.state".
colvars: Synchronizing (emptying the buffer of) trajectory file "Run5_Fusion_Es_3kT_Ens_05kT.colvars.traj".
colvars: Saving collective variables state to "rest.colvars.state".
colvars: Synchronizing (emptying the buffer of) trajectory file "Run5_Fusion_Es_3kT_Ens_05kT.colvars.traj".
colvars: Saving collective variables state to "rest.colvars.state".
colvars: Synchronizing (emptying the buffer of) trajectory file "Run5_Fusion_Es_3kT_Ens_05kT.colvars.traj".
colvars: Saving collective variables state to "rest.colvars.state".
colvars: Synchronizing (emptying the buffer of) trajectory file "Run5_Fusion_Es_3kT_Ens_05kT.colvars.traj".
colvars: Saving collective variables state to "rest.colvars.state".
colvars: Synchronizing (emptying the buffer of) trajectory file "Run5_Fusion_Es_3kT_Ens_05kT.colvars.traj".
colvars: Saving collective variables state to "rest.colvars.state".
colvars: Synchronizing (emptying the buffer of) trajectory file "Run5_Fusion_Es_3kT_Ens_05kT.colvars.traj".
colvars: Saving collective variables state to "rest.colvars.state".
colvars: Synchronizing (emptying the buffer of) trajectory file "Run5_Fusion_Es_3kT_Ens_05kT.colvars.traj".
colvars: Saving collective variables state to "rest.colvars.state".
colvars: Synchronizing (emptying the buffer of) trajectory file "Run5_Fusion_Es_3kT_Ens_05kT.colvars.traj".
colvars: Saving collective variables state to "rest.colvars.state".
600000000   -7793.0998    1014.1123    9270.2582    3100.9752    5706.2369    311.02905    10505 
colvars: Saving collective variables state to "Run5_Fusion_Es_3kT_Ens_05kT.colvars.state".
Loop time of 264110 on 16 procs for 600000000 steps with 10000 atoms

Performance: 4907.049 ns/day, 0.005 hours/ns, 2271.782 timesteps/s
99.7% CPU use with 16 MPI tasks x no OpenMP threads

MPI task timing breakdown:
Section |  min time  |  avg time  |  max time  |%varavg| %total
---------------------------------------------------------------
Pair    | 68415      | 79607      | 86691      |1522.5 | 30.14
Bond    | 11617      | 11839      | 12318      | 155.7 |  4.48
Neigh   | 31386      | 31562      | 31885      |  75.9 | 11.95
Comm    | 39701      | 47985      | 60356      |2293.8 | 18.17
Output  | 3.396      | 3.3962     | 3.3965     |   0.0 |  0.00
Modify  | 81115      | 85280      | 88724      | 733.7 | 32.29
Other   |            | 7834       |            |       |  2.97

Nlocal:    625 ave 661 max 583 min
Histogram: 2 2 1 1 0 1 2 3 3 1
Nghost:    964.438 ave 1186 max 718 min
Histogram: 2 1 4 0 1 0 1 2 2 3
Neighs:    12822.8 ave 15321 max 11417 min
Histogram: 4 3 0 2 1 3 1 0 1 1

Total # of neighbors = 205164
Ave neighs/atom = 20.5164
Ave special neighs/atom = 7.3206
Neighbor list builds = 35215255
Dangerous builds = 0
System init for write_restart ...
colvars: Resetting the Collective Variables module.

Please see the log.cite file for references relevant to this simulation

Total wall time: 73:21:51
